
          ---- Aqueous concentrations vs. grid blocks at specified times ----

   Unit: 
    - Aqueous species: Total concencentrations in mol/L     
    - Component in dry nodes in mol/L medium

VARIABLES =X,        Y,       Z,  P(bar)  ,      Sg,       Sl  ,     T(C)  ,  aH2O,    pH     ,t_so4-2    ,t_fe+2     ,t_cu+2     ,t_na+      ,t_k+       ,t_ca+2     ,t_alo2-    ,t_sio2(aq) ,t_cl-      ,
ZONE T= "0.000000E+00 yr"  F=POINT
      0.000     -0.000      0.000  0.2932E-06  0.9707E+00  0.2932E-01  25.000  1.0000  7.0000  0.1037E-11  0.7326E-12  0.1030E-11  0.1007E-04  0.1007E-05  0.1037E-05  0.8069E-17  0.9972E-06  0.1296E-03
      0.000     -1.000      0.000  0.2693E-05  0.7307E+00  0.2693E+00  25.000  1.0000  7.0000  0.1037E-11  0.7326E-12  0.1030E-11  0.1007E-04  0.1007E-05  0.1037E-05  0.8069E-17  0.9972E-06  0.1296E-03
      0.254     -1.000      0.000  0.9762E-05  0.2384E-01  0.9762E+00  25.000  1.0000  7.0000  0.1037E-11  0.7326E-12  0.1030E-11  0.1007E-04  0.1007E-05  0.1037E-05  0.8069E-17  0.9972E-06  0.1296E-03
      0.900     -1.000      0.000  0.9762E-05  0.2385E-01  0.9762E+00  25.000  1.0000  7.0000  0.1037E-11  0.7326E-12  0.1030E-11  0.1007E-04  0.1007E-05  0.1037E-05  0.8069E-17  0.9972E-06  0.1296E-03
      2.247     -1.000      0.000  0.9762E-05  0.2385E-01  0.9762E+00  25.000  1.0000  7.0000  0.1037E-11  0.7326E-12  0.1030E-11  0.1007E-04  0.1007E-05  0.1037E-05  0.8069E-17  0.9972E-06  0.1296E-03
      5.215     -1.000      0.000  0.9761E-05  0.2386E-01  0.9761E+00  25.000  1.0000  7.0000  0.1037E-11  0.7326E-12  0.1030E-11  0.1007E-04  0.1007E-05  0.1037E-05  0.8069E-17  0.9972E-06  0.1296E-03
     10.790     -1.000      0.000  0.9761E-05  0.2387E-01  0.9761E+00  25.000  1.0000  7.0000  0.1037E-11  0.7326E-12  0.1030E-11  0.1007E-04  0.1007E-05  0.1037E-05  0.8069E-17  0.9972E-06  0.1296E-03
     14.340     -1.000      0.000  0.9761E-05  0.2388E-01  0.9761E+00  25.000  1.0000  7.0000  0.1037E-11  0.7326E-12  0.1030E-11  0.1007E-04  0.1007E-05  0.1037E-05  0.8069E-17  0.9972E-06  0.1296E-03
      0.000     -3.000      0.000  0.2580E-05  0.7420E+00  0.2580E+00  25.000  1.0000  7.0000  0.1037E-11  0.7326E-12  0.1030E-11  0.1007E-04  0.1007E-05  0.1037E-05  0.8069E-17  0.9972E-06  0.1296E-03
      0.254     -3.000      0.000  0.9833E-05  0.1672E-01  0.9833E+00  25.000  1.0000  7.0000  0.1037E-11  0.7326E-12  0.1030E-11  0.1007E-04  0.1007E-05  0.1037E-05  0.8069E-17  0.9972E-06  0.1296E-03
      0.900     -3.000      0.000  0.9833E-05  0.1672E-01  0.9833E+00  25.000  1.0000  7.0000  0.1037E-11  0.7326E-12  0.1030E-11  0.1007E-04  0.1007E-05  0.1037E-05  0.8069E-17  0.9972E-06  0.1296E-03
      2.247     -3.000      0.000  0.9833E-05  0.1672E-01  0.9833E+00  25.000  1.0000  7.0000  0.1037E-11  0.7326E-12  0.1030E-11  0.1007E-04  0.1007E-05  0.1037E-05  0.8069E-17  0.9972E-06  0.1296E-03
      5.215     -3.000      0.000  0.9833E-05  0.1672E-01  0.9833E+00  25.000  1.0000  7.0000  0.1037E-11  0.7326E-12  0.1030E-11  0.1007E-04  0.1007E-05  0.1037E-05  0.8069E-17  0.9972E-06  0.1296E-03
     10.790     -3.000      0.000  0.9833E-05  0.1672E-01  0.9833E+00  25.000  1.0000  7.0000  0.1037E-11  0.7326E-12  0.1030E-11  0.1007E-04  0.1007E-05  0.1037E-05  0.8069E-17  0.9972E-06  0.1296E-03
     14.340     -3.000      0.000  0.9833E-05  0.1672E-01  0.9833E+00  25.000  1.0000  7.0000  0.1037E-11  0.7326E-12  0.1030E-11  0.1007E-04  0.1007E-05  0.1037E-05  0.8069E-17  0.9972E-06  0.1296E-03
      0.000     -5.000      0.000  0.2647E-05  0.7353E+00  0.2647E+00  25.000  1.0000  7.0000  0.1037E-11  0.7326E-12  0.1030E-11  0.1007E-04  0.1007E-05  0.1037E-05  0.8069E-17  0.9972E-06  0.1296E-03
      0.254     -5.000      0.000  0.9884E-05  0.1155E-01  0.9884E+00  25.000  1.0000  7.0000  0.1037E-11  0.7326E-12  0.1030E-11  0.1007E-04  0.1007E-05  0.1037E-05  0.8069E-17  0.9972E-06  0.1296E-03
      0.900     -5.000      0.000  0.9884E-05  0.1155E-01  0.9884E+00  25.000  1.0000  7.0000  0.1037E-11  0.7326E-12  0.1030E-11  0.1007E-04  0.1007E-05  0.1037E-05  0.8069E-17  0.9972E-06  0.1296E-03
      2.247     -5.000      0.000  0.9884E-05  0.1155E-01  0.9884E+00  25.000  1.0000  7.0000  0.1037E-11  0.7326E-12  0.1030E-11  0.1007E-04  0.1007E-05  0.1037E-05  0.8069E-17  0.9972E-06  0.1296E-03
      5.215     -5.000      0.000  0.9884E-05  0.1155E-01  0.9884E+00  25.000  1.0000  7.0000  0.1037E-11  0.7326E-12  0.1030E-11  0.1007E-04  0.1007E-05  0.1037E-05  0.8069E-17  0.9972E-06  0.1296E-03
     10.790     -5.000      0.000  0.9884E-05  0.1155E-01  0.9884E+00  25.000  1.0000  7.0000  0.1037E-11  0.7326E-12  0.1030E-11  0.1007E-04  0.1007E-05  0.1037E-05  0.8069E-17  0.9972E-06  0.1296E-03
     14.340     -5.000      0.000  0.9884E-05  0.1155E-01  0.9884E+00  25.000  1.0000  7.0000  0.1037E-11  0.7326E-12  0.1030E-11  0.1007E-04  0.1007E-05  0.1037E-05  0.8069E-17  0.9972E-06  0.1296E-03
      0.000     -7.000      0.000  0.3292E-05  0.6708E+00  0.3292E+00  25.000  1.0000  7.0000  0.1037E-11  0.7326E-12  0.1030E-11  0.1007E-04  0.1007E-05  0.1037E-05  0.8069E-17  0.9972E-06  0.1296E-03
      0.254     -7.000      0.000  0.9933E-05  0.6729E-02  0.9933E+00  25.000  1.0000  7.0000  0.1037E-11  0.7326E-12  0.1030E-11  0.1007E-04  0.1007E-05  0.1037E-05  0.8069E-17  0.9972E-06  0.1296E-03
      0.900     -7.000      0.000  0.9933E-05  0.6728E-02  0.9933E+00  25.000  1.0000  7.0000  0.1037E-11  0.7326E-12  0.1030E-11  0.1007E-04  0.1007E-05  0.1037E-05  0.8069E-17  0.9972E-06  0.1296E-03
      2.247     -7.000      0.000  0.9933E-05  0.6727E-02  0.9933E+00  25.000  1.0000  7.0000  0.1037E-11  0.7326E-12  0.1030E-11  0.1007E-04  0.1007E-05  0.1037E-05  0.8069E-17  0.9972E-06  0.1296E-03
      5.215     -7.000      0.000  0.9933E-05  0.6725E-02  0.9933E+00  25.000  1.0000  7.0000  0.1037E-11  0.7326E-12  0.1030E-11  0.1007E-04  0.1007E-05  0.1037E-05  0.8069E-17  0.9972E-06  0.1296E-03
     10.790     -7.000      0.000  0.9933E-05  0.6722E-02  0.9933E+00  25.000  1.0000  7.0000  0.1037E-11  0.7326E-12  0.1030E-11  0.1007E-04  0.1007E-05  0.1037E-05  0.8069E-17  0.9972E-06  0.1296E-03
     14.340     -7.000      0.000  0.9933E-05  0.6718E-02  0.9933E+00  25.000  1.0000  7.0000  0.1037E-11  0.7326E-12  0.1030E-11  0.1007E-04  0.1007E-05  0.1037E-05  0.8069E-17  0.9972E-06  0.1296E-03
      0.000     -9.000      0.000  0.6644E-05  0.3356E+00  0.6644E+00  25.000  1.0000  7.0000  0.1037E-11  0.7326E-12  0.1030E-11  0.1007E-04  0.1007E-05  0.1037E-05  0.8069E-17  0.9972E-06  0.1296E-03
      0.254     -9.000      0.000  0.9990E-05  0.9811E-03  0.9990E+00  25.000  1.0000  7.0000  0.1037E-11  0.7326E-12  0.1030E-11  0.1007E-04  0.1007E-05  0.1037E-05  0.8069E-17  0.9972E-06  0.1296E-03
      0.900     -9.000      0.000  0.9990E-05  0.9810E-03  0.9990E+00  25.000  1.0000  7.0000  0.1037E-11  0.7326E-12  0.1030E-11  0.1007E-04  0.1007E-05  0.1037E-05  0.8069E-17  0.9972E-06  0.1296E-03
      2.247     -9.000      0.000  0.9990E-05  0.9809E-03  0.9990E+00  25.000  1.0000  7.0000  0.1037E-11  0.7326E-12  0.1030E-11  0.1007E-04  0.1007E-05  0.1037E-05  0.8069E-17  0.9972E-06  0.1296E-03
      5.215     -9.000      0.000  0.9990E-05  0.9807E-03  0.9990E+00  25.000  1.0000  7.0000  0.1037E-11  0.7326E-12  0.1030E-11  0.1007E-04  0.1007E-05  0.1037E-05  0.8069E-17  0.9972E-06  0.1296E-03
     10.790     -9.000      0.000  0.9990E-05  0.9804E-03  0.9990E+00  25.000  1.0000  7.0000  0.1037E-11  0.7326E-12  0.1030E-11  0.1007E-04  0.1007E-05  0.1037E-05  0.8069E-17  0.9972E-06  0.1296E-03
     14.340     -9.000      0.000  0.9990E-05  0.9800E-03  0.9990E+00  25.000  1.0000  7.0000  0.1037E-11  0.7326E-12  0.1030E-11  0.1007E-04  0.1007E-05  0.1037E-05  0.8069E-17  0.9972E-06  0.1296E-03
      0.000    -11.000      0.000  0.1120E+01  0.0000E+00  0.1000E+01  25.000  0.9999  6.5815  0.2235E-02  0.3717E-04  0.2454E-15  0.2237E-02  0.1822E-03  0.6597E-03  0.8205E-13  0.1929E-02  0.9972E-07
      0.254    -11.000      0.000  0.1120E+01  0.0000E+00  0.1000E+01  25.000  0.9999  6.5815  0.2235E-02  0.3717E-04  0.2454E-15  0.2237E-02  0.1822E-03  0.6597E-03  0.8205E-13  0.1929E-02  0.9972E-07
      0.900    -11.000      0.000  0.1120E+01  0.0000E+00  0.1000E+01  25.000  0.9999  6.5815  0.2235E-02  0.3717E-04  0.2454E-15  0.2237E-02  0.1822E-03  0.6597E-03  0.8205E-13  0.1929E-02  0.9972E-07
      2.247    -11.000      0.000  0.1120E+01  0.0000E+00  0.1000E+01  25.000  0.9999  6.5815  0.2235E-02  0.3717E-04  0.2454E-15  0.2237E-02  0.1822E-03  0.6597E-03  0.8205E-13  0.1929E-02  0.9972E-07
      5.215    -11.000      0.000  0.1120E+01  0.0000E+00  0.1000E+01  25.000  0.9999  6.5815  0.2235E-02  0.3717E-04  0.2454E-15  0.2237E-02  0.1822E-03  0.6597E-03  0.8205E-13  0.1929E-02  0.9972E-07
     10.790    -11.000      0.000  0.1120E+01  0.0000E+00  0.1000E+01  25.000  0.9999  6.5815  0.2235E-02  0.3717E-04  0.2454E-15  0.2237E-02  0.1822E-03  0.6597E-03  0.8205E-13  0.1929E-02  0.9972E-07
     14.340    -11.000      0.000  0.1120E+01  0.0000E+00  0.1000E+01  25.000  0.9999  6.5815  0.2235E-02  0.3717E-04  0.2454E-15  0.2237E-02  0.1822E-03  0.6597E-03  0.8205E-13  0.1929E-02  0.9972E-07
      0.000    -13.000      0.000  0.1315E+01  0.0000E+00  0.1000E+01  25.000  0.9999  6.5815  0.2235E-02  0.3717E-04  0.2454E-15  0.2237E-02  0.1822E-03  0.6597E-03  0.8205E-13  0.1929E-02  0.9972E-07
      0.254    -13.000      0.000  0.1315E+01  0.0000E+00  0.1000E+01  25.000  0.9999  6.5815  0.2235E-02  0.3717E-04  0.2454E-15  0.2237E-02  0.1822E-03  0.6597E-03  0.8205E-13  0.1929E-02  0.9972E-07
      0.900    -13.000      0.000  0.1315E+01  0.0000E+00  0.1000E+01  25.000  0.9999  6.5815  0.2235E-02  0.3717E-04  0.2454E-15  0.2237E-02  0.1822E-03  0.6597E-03  0.8205E-13  0.1929E-02  0.9972E-07
      2.247    -13.000      0.000  0.1315E+01  0.0000E+00  0.1000E+01  25.000  0.9999  6.5815  0.2235E-02  0.3717E-04  0.2454E-15  0.2237E-02  0.1822E-03  0.6597E-03  0.8205E-13  0.1929E-02  0.9972E-07
      5.215    -13.000      0.000  0.1315E+01  0.0000E+00  0.1000E+01  25.000  0.9999  6.5815  0.2235E-02  0.3717E-04  0.2454E-15  0.2237E-02  0.1822E-03  0.6597E-03  0.8205E-13  0.1929E-02  0.9972E-07
     10.790    -13.000      0.000  0.1315E+01  0.0000E+00  0.1000E+01  25.000  0.9999  6.5815  0.2235E-02  0.3717E-04  0.2454E-15  0.2237E-02  0.1822E-03  0.6597E-03  0.8205E-13  0.1929E-02  0.9972E-07
     14.340    -13.000      0.000  0.1315E+01  0.0000E+00  0.1000E+01  25.000  0.9999  6.5815  0.2235E-02  0.3717E-04  0.2454E-15  0.2237E-02  0.1822E-03  0.6597E-03  0.8205E-13  0.1929E-02  0.9972E-07
      0.000    -15.000      0.000  0.1511E+01  0.0000E+00  0.1000E+01  25.000  0.9999  6.5815  0.2235E-02  0.3717E-04  0.2454E-15  0.2237E-02  0.1822E-03  0.6597E-03  0.8205E-13  0.1929E-02  0.9972E-07
      0.254    -15.000      0.000  0.1511E+01  0.0000E+00  0.1000E+01  25.000  0.9999  6.5815  0.2235E-02  0.3717E-04  0.2454E-15  0.2237E-02  0.1822E-03  0.6597E-03  0.8205E-13  0.1929E-02  0.9972E-07
      0.900    -15.000      0.000  0.1511E+01  0.0000E+00  0.1000E+01  25.000  0.9999  6.5815  0.2235E-02  0.3717E-04  0.2454E-15  0.2237E-02  0.1822E-03  0.6597E-03  0.8205E-13  0.1929E-02  0.9972E-07
      2.247    -15.000      0.000  0.1511E+01  0.0000E+00  0.1000E+01  25.000  0.9999  6.5815  0.2235E-02  0.3717E-04  0.2454E-15  0.2237E-02  0.1822E-03  0.6597E-03  0.8205E-13  0.1929E-02  0.9972E-07
      5.215    -15.000      0.000  0.1511E+01  0.0000E+00  0.1000E+01  25.000  0.9999  6.5815  0.2235E-02  0.3717E-04  0.2454E-15  0.2237E-02  0.1822E-03  0.6597E-03  0.8205E-13  0.1929E-02  0.9972E-07
     10.790    -15.000      0.000  0.1511E+01  0.0000E+00  0.1000E+01  25.000  0.9999  6.5815  0.2235E-02  0.3717E-04  0.2454E-15  0.2237E-02  0.1822E-03  0.6597E-03  0.8205E-13  0.1929E-02  0.9972E-07
     14.340    -15.000      0.000  0.1511E+01  0.0000E+00  0.1000E+01  25.000  0.9999  6.5815  0.2235E-02  0.3717E-04  0.2454E-15  0.2237E-02  0.1822E-03  0.6597E-03  0.8205E-13  0.1929E-02  0.9972E-07
      0.000    -17.000      0.000  0.1706E+01  0.0000E+00  0.1000E+01  25.000  0.9999  6.5815  0.2235E-02  0.3717E-04  0.2455E-15  0.2237E-02  0.1822E-03  0.6597E-03  0.8205E-13  0.1929E-02  0.9972E-07
      0.254    -17.000      0.000  0.1706E+01  0.0000E+00  0.1000E+01  25.000  0.9999  6.5815  0.2235E-02  0.3717E-04  0.2455E-15  0.2237E-02  0.1822E-03  0.6597E-03  0.8205E-13  0.1929E-02  0.9972E-07
      0.900    -17.000      0.000  0.1706E+01  0.0000E+00  0.1000E+01  25.000  0.9999  6.5815  0.2235E-02  0.3717E-04  0.2455E-15  0.2237E-02  0.1822E-03  0.6597E-03  0.8205E-13  0.1929E-02  0.9972E-07
      2.247    -17.000      0.000  0.1706E+01  0.0000E+00  0.1000E+01  25.000  0.9999  6.5815  0.2235E-02  0.3717E-04  0.2455E-15  0.2237E-02  0.1822E-03  0.6597E-03  0.8205E-13  0.1929E-02  0.9972E-07
      5.215    -17.000      0.000  0.1706E+01  0.0000E+00  0.1000E+01  25.000  0.9999  6.5815  0.2235E-02  0.3717E-04  0.2455E-15  0.2237E-02  0.1822E-03  0.6597E-03  0.8205E-13  0.1929E-02  0.9972E-07
     10.790    -17.000      0.000  0.1706E+01  0.0000E+00  0.1000E+01  25.000  0.9999  6.5815  0.2235E-02  0.3717E-04  0.2455E-15  0.2237E-02  0.1822E-03  0.6597E-03  0.8205E-13  0.1929E-02  0.9972E-07
     14.340    -17.000      0.000  0.1706E+01  0.0000E+00  0.1000E+01  25.000  0.9999  6.5815  0.2235E-02  0.3717E-04  0.2455E-15  0.2237E-02  0.1822E-03  0.6597E-03  0.8205E-13  0.1929E-02  0.9972E-07
      0.000    -19.000      0.000  0.1902E+01  0.0000E+00  0.1000E+01  25.000  0.9999  6.5815  0.2235E-02  0.3717E-04  0.2455E-15  0.2237E-02  0.1822E-03  0.6597E-03  0.8205E-13  0.1929E-02  0.9972E-07
      0.254    -19.000      0.000  0.1902E+01  0.0000E+00  0.1000E+01  25.000  0.9999  6.5815  0.2235E-02  0.3717E-04  0.2455E-15  0.2237E-02  0.1822E-03  0.6597E-03  0.8205E-13  0.1929E-02  0.9972E-07
      0.900    -19.000      0.000  0.1902E+01  0.0000E+00  0.1000E+01  25.000  0.9999  6.5815  0.2235E-02  0.3717E-04  0.2455E-15  0.2237E-02  0.1822E-03  0.6597E-03  0.8205E-13  0.1929E-02  0.9972E-07
      2.247    -19.000      0.000  0.1902E+01  0.0000E+00  0.1000E+01  25.000  0.9999  6.5815  0.2235E-02  0.3717E-04  0.2455E-15  0.2237E-02  0.1822E-03  0.6597E-03  0.8205E-13  0.1929E-02  0.9972E-07
      5.215    -19.000      0.000  0.1902E+01  0.0000E+00  0.1000E+01  25.000  0.9999  6.5815  0.2235E-02  0.3717E-04  0.2455E-15  0.2237E-02  0.1822E-03  0.6597E-03  0.8205E-13  0.1929E-02  0.9972E-07
     10.790    -19.000      0.000  0.1902E+01  0.0000E+00  0.1000E+01  25.000  0.9999  6.5815  0.2235E-02  0.3717E-04  0.2455E-15  0.2237E-02  0.1822E-03  0.6597E-03  0.8205E-13  0.1929E-02  0.9972E-07
     14.340    -19.000      0.000  0.1902E+01  0.0000E+00  0.1000E+01  25.000  0.9999  6.5815  0.2235E-02  0.3717E-04  0.2455E-15  0.2237E-02  0.1822E-03  0.6597E-03  0.8205E-13  0.1929E-02  0.9972E-07
      0.000    -20.000      0.000  0.2000E+01  0.0000E+00  0.1000E+01  25.000  0.9999  6.5815  0.2235E-02  0.3717E-04  0.2455E-15  0.2237E-02  0.1822E-03  0.6597E-03  0.8205E-13  0.1929E-02  0.9972E-07
      0.254    -20.000      0.000  0.2000E+01  0.0000E+00  0.1000E+01  25.000  0.9999  6.5815  0.2235E-02  0.3717E-04  0.2455E-15  0.2237E-02  0.1822E-03  0.6597E-03  0.8205E-13  0.1929E-02  0.9972E-07
      0.900    -20.000      0.000  0.2000E+01  0.0000E+00  0.1000E+01  25.000  0.9999  6.5815  0.2235E-02  0.3717E-04  0.2455E-15  0.2237E-02  0.1822E-03  0.6597E-03  0.8205E-13  0.1929E-02  0.9972E-07
      2.247    -20.000      0.000  0.2000E+01  0.0000E+00  0.1000E+01  25.000  0.9999  6.5815  0.2235E-02  0.3717E-04  0.2455E-15  0.2237E-02  0.1822E-03  0.6597E-03  0.8205E-13  0.1929E-02  0.9972E-07
      5.215    -20.000      0.000  0.2000E+01  0.0000E+00  0.1000E+01  25.000  0.9999  6.5815  0.2235E-02  0.3717E-04  0.2455E-15  0.2237E-02  0.1822E-03  0.6597E-03  0.8205E-13  0.1929E-02  0.9972E-07
     10.790    -20.000      0.000  0.2000E+01  0.0000E+00  0.1000E+01  25.000  0.9999  6.5815  0.2235E-02  0.3717E-04  0.2455E-15  0.2237E-02  0.1822E-03  0.6597E-03  0.8205E-13  0.1929E-02  0.9972E-07
     14.340    -20.000      0.000  0.2000E+01  0.0000E+00  0.1000E+01  25.000  0.9999  6.5815  0.2235E-02  0.3717E-04  0.2455E-15  0.2237E-02  0.1822E-03  0.6597E-03  0.8205E-13  0.1929E-02  0.9972E-07
ZONE T= "0.271853E+00 yr"  F=POINT
      0.000     -0.000      0.000  0.2932E-06  0.9707E+00  0.2932E-01  25.000  1.0000  7.0000  0.1037E-11  0.7326E-12  0.1030E-11  0.1007E-04  0.1007E-05  0.1037E-05  0.8069E-17  0.9972E-06  0.1296E-03
      0.000     -1.000      0.000  0.2693E-05  0.7307E+00  0.2693E+00  25.000  1.0000  4.2907  0.4251E-04  0.1069E-04  0.6340E-05  0.1067E-04  0.2187E-05  0.1508E-05  0.2413E-05  0.6951E-05  0.1296E-03
      0.254     -1.000      0.000  0.9761E-05  0.2390E-01  0.9761E+00  25.000  1.0000  4.2822  0.4338E-04  0.1094E-04  0.6471E-05  0.1068E-04  0.2212E-05  0.1517E-05  0.2462E-05  0.7074E-05  0.1296E-03
      0.900     -1.000      0.000  0.9761E-05  0.2390E-01  0.9761E+00  25.000  1.0000  4.2574  0.4604E-04  0.1168E-04  0.6868E-05  0.1072E-04  0.2286E-05  0.1547E-05  0.2613E-05  0.7447E-05  0.1296E-03
      2.247     -1.000      0.000  0.9761E-05  0.2391E-01  0.9761E+00  25.000  1.0000  4.2208  0.5025E-04  0.1281E-04  0.7496E-05  0.1078E-04  0.2403E-05  0.1593E-05  0.2853E-05  0.8036E-05  0.1296E-03
      5.215     -1.000      0.000  0.9761E-05  0.2391E-01  0.9761E+00  25.000  1.0000  4.1895  0.5411E-04  0.1382E-04  0.8072E-05  0.1083E-04  0.2510E-05  0.1636E-05  0.3074E-05  0.8577E-05  0.1296E-03
     10.790     -1.000      0.000  0.9761E-05  0.2393E-01  0.9761E+00  25.000  1.0000  4.1824  0.5502E-04  0.1405E-04  0.8208E-05  0.1084E-04  0.2535E-05  0.1646E-05  0.3126E-05  0.8705E-05  0.1296E-03
     14.340     -1.000      0.000  0.9761E-05  0.2394E-01  0.9761E+00  25.000  1.0000  4.1820  0.5507E-04  0.1407E-04  0.8216E-05  0.1084E-04  0.2537E-05  0.1647E-05  0.3129E-05  0.8712E-05  0.1296E-03
      0.000     -3.000      0.000  0.2579E-05  0.7421E+00  0.2579E+00  25.000  1.0000  4.2357  0.4839E-04  0.1218E-04  0.7219E-05  0.1075E-04  0.2351E-05  0.1573E-05  0.2748E-05  0.7776E-05  0.1296E-03
      0.254     -3.000      0.000  0.9832E-05  0.1676E-01  0.9832E+00  25.000  1.0000  4.2322  0.4880E-04  0.1231E-04  0.7280E-05  0.1076E-04  0.2362E-05  0.1577E-05  0.2772E-05  0.7834E-05  0.1296E-03
      0.900     -3.000      0.000  0.9832E-05  0.1676E-01  0.9832E+00  25.000  1.0000  4.2220  0.5005E-04  0.1269E-04  0.7466E-05  0.1077E-04  0.2397E-05  0.1591E-05  0.2842E-05  0.8008E-05  0.1296E-03
      2.247     -3.000      0.000  0.9832E-05  0.1676E-01  0.9832E+00  25.000  1.0000  4.2046  0.5220E-04  0.1330E-04  0.7786E-05  0.1080E-04  0.2457E-05  0.1615E-05  0.2965E-05  0.8309E-05  0.1296E-03
      5.215     -3.000      0.000  0.9832E-05  0.1677E-01  0.9832E+00  25.000  1.0000  4.1866  0.5448E-04  0.1391E-04  0.8126E-05  0.1084E-04  0.2520E-05  0.1640E-05  0.3095E-05  0.8628E-05  0.1296E-03
     10.790     -3.000      0.000  0.9832E-05  0.1677E-01  0.9832E+00  25.000  1.0000  4.1822  0.5505E-04  0.1406E-04  0.8212E-05  0.1084E-04  0.2536E-05  0.1646E-05  0.3128E-05  0.8709E-05  0.1296E-03
     14.340     -3.000      0.000  0.9832E-05  0.1677E-01  0.9832E+00  25.000  1.0000  4.1820  0.5508E-04  0.1407E-04  0.8216E-05  0.1084E-04  0.2537E-05  0.1647E-05  0.3130E-05  0.8713E-05  0.1296E-03
      0.000     -5.000      0.000  0.2645E-05  0.7355E+00  0.2645E+00  25.000  1.0000  4.2338  0.4860E-04  0.1223E-04  0.7250E-05  0.1075E-04  0.2357E-05  0.1575E-05  0.2760E-05  0.7805E-05  0.1296E-03
      0.254     -5.000      0.000  0.9884E-05  0.1158E-01  0.9884E+00  25.000  1.0000  4.2306  0.4899E-04  0.1235E-04  0.7308E-05  0.1076E-04  0.2368E-05  0.1579E-05  0.2782E-05  0.7860E-05  0.1296E-03
      0.900     -5.000      0.000  0.9884E-05  0.1158E-01  0.9884E+00  25.000  1.0000  4.2208  0.5019E-04  0.1272E-04  0.7486E-05  0.1078E-04  0.2401E-05  0.1593E-05  0.2850E-05  0.8028E-05  0.1296E-03
      2.247     -5.000      0.000  0.9884E-05  0.1158E-01  0.9884E+00  25.000  1.0000  4.2041  0.5226E-04  0.1332E-04  0.7796E-05  0.1081E-04  0.2458E-05  0.1616E-05  0.2968E-05  0.8318E-05  0.1296E-03
      5.215     -5.000      0.000  0.9884E-05  0.1158E-01  0.9884E+00  25.000  1.0000  4.1865  0.5449E-04  0.1392E-04  0.8129E-05  0.1084E-04  0.2520E-05  0.1640E-05  0.3096E-05  0.8631E-05  0.1296E-03
     10.790     -5.000      0.000  0.9884E-05  0.1158E-01  0.9884E+00  25.000  1.0000  4.1822  0.5505E-04  0.1406E-04  0.8212E-05  0.1084E-04  0.2536E-05  0.1646E-05  0.3128E-05  0.8709E-05  0.1296E-03
     14.340     -5.000      0.000  0.9884E-05  0.1158E-01  0.9884E+00  25.000  1.0000  4.1820  0.5508E-04  0.1407E-04  0.8216E-05  0.1084E-04  0.2537E-05  0.1647E-05  0.3130E-05  0.8713E-05  0.1296E-03
      0.000     -7.000      0.000  0.3291E-05  0.6709E+00  0.3291E+00  25.000  1.0000  4.2423  0.4761E-04  0.1194E-04  0.7102E-05  0.1074E-04  0.2329E-05  0.1564E-05  0.2704E-05  0.7668E-05  0.1296E-03
      0.254     -7.000      0.000  0.9933E-05  0.6735E-02  0.9933E+00  25.000  1.0000  4.2384  0.4808E-04  0.1209E-04  0.7172E-05  0.1075E-04  0.2342E-05  0.1570E-05  0.2730E-05  0.7733E-05  0.1296E-03
      0.900     -7.000      0.000  0.9933E-05  0.6735E-02  0.9933E+00  25.000  1.0000  4.2266  0.4949E-04  0.1253E-04  0.7383E-05  0.1077E-04  0.2382E-05  0.1585E-05  0.2810E-05  0.7931E-05  0.1296E-03
      2.247     -7.000      0.000  0.9933E-05  0.6734E-02  0.9933E+00  25.000  1.0000  4.2070  0.5190E-04  0.1322E-04  0.7742E-05  0.1080E-04  0.2448E-05  0.1612E-05  0.2947E-05  0.8268E-05  0.1296E-03
      5.215     -7.000      0.000  0.9933E-05  0.6732E-02  0.9933E+00  25.000  1.0000  4.1871  0.5442E-04  0.1390E-04  0.8117E-05  0.1084E-04  0.2518E-05  0.1639E-05  0.3091E-05  0.8620E-05  0.1296E-03
     10.790     -7.000      0.000  0.9933E-05  0.6729E-02  0.9933E+00  25.000  1.0000  4.1822  0.5505E-04  0.1406E-04  0.8211E-05  0.1084E-04  0.2536E-05  0.1646E-05  0.3128E-05  0.8708E-05  0.1296E-03
     14.340     -7.000      0.000  0.9933E-05  0.6725E-02  0.9933E+00  25.000  1.0000  4.1820  0.5508E-04  0.1407E-04  0.8216E-05  0.1084E-04  0.2537E-05  0.1647E-05  0.3130E-05  0.8713E-05  0.1296E-03
      0.000     -9.000      0.000  0.6644E-05  0.3356E+00  0.6644E+00  25.000  1.0000  4.2927  0.4717E-04  0.1042E-04  0.6274E-05  0.1573E-04  0.2588E-05  0.3004E-05  0.2388E-05  0.1128E-04  0.1293E-03
      0.254     -9.000      0.000  0.9990E-05  0.9811E-03  0.9990E+00  25.000  1.0000  4.2852  0.4769E-04  0.1067E-04  0.6394E-05  0.1546E-04  0.2587E-05  0.2931E-05  0.2434E-05  0.1115E-04  0.1293E-03
      0.900     -9.000      0.000  0.9990E-05  0.9810E-03  0.9990E+00  25.000  1.0000  4.2624  0.4928E-04  0.1143E-04  0.6767E-05  0.1460E-04  0.2583E-05  0.2691E-05  0.2576E-05  0.1072E-04  0.1294E-03
      2.247     -9.000      0.000  0.9990E-05  0.9809E-03  0.9990E+00  25.000  1.0000  4.2258  0.5194E-04  0.1263E-04  0.7398E-05  0.1309E-04  0.2574E-05  0.2275E-05  0.2816E-05  0.9959E-05  0.1295E-03
      5.215     -9.000      0.000  0.9990E-05  0.9807E-03  0.9990E+00  25.000  1.0000  4.1907  0.5460E-04  0.1378E-04  0.8047E-05  0.1148E-04  0.2558E-05  0.1827E-05  0.3065E-05  0.9120E-05  0.1296E-03
     10.790     -9.000      0.000  0.9990E-05  0.9804E-03  0.9990E+00  25.000  1.0000  4.1824  0.5525E-04  0.1405E-04  0.8207E-05  0.1107E-04  0.2554E-05  0.1713E-05  0.3126E-05  0.8902E-05  0.1296E-03
     14.340     -9.000      0.000  0.9990E-05  0.9800E-03  0.9990E+00  25.000  1.0000  4.1820  0.5528E-04  0.1407E-04  0.8216E-05  0.1105E-04  0.2553E-05  0.1707E-05  0.3130E-05  0.8890E-05  0.1296E-03
      0.000    -11.000      0.000  0.1120E+01  0.0000E+00  0.1000E+01  25.000  0.9999  4.2983  0.1945E-02  0.3346E-04  0.5582E-06  0.1930E-02  0.1574E-03  0.5703E-03  0.4839E-06  0.1664E-02  0.1792E-04
      0.254    -11.000      0.000  0.1120E+01  0.0000E+00  0.1000E+01  25.000  0.9999  4.3767  0.1963E-02  0.3417E-04  0.4948E-06  0.1947E-02  0.1589E-03  0.5756E-03  0.4757E-06  0.1679E-02  0.1690E-04
      0.900    -11.000      0.000  0.1120E+01  0.0000E+00  0.1000E+01  25.000  0.9999  4.7673  0.2020E-02  0.3833E-04  0.1096E-11  0.2005E-02  0.1635E-03  0.5926E-03  0.3630E-06  0.1729E-02  0.1356E-04
      2.247    -11.000      0.000  0.1120E+01  0.0000E+00  0.1000E+01  25.000  0.9999  5.3644  0.2113E-02  0.4128E-04  0.3617E-14  0.2105E-02  0.1715E-03  0.6220E-03  0.2197E-07  0.1815E-02  0.7794E-05
      5.215    -11.000      0.000  0.1120E+01  0.0000E+00  0.1000E+01  25.000  0.9999  6.9778  0.2210E-02  0.3836E-04  0.2029E-15  0.2209E-02  0.1800E-03  0.6525E-03  0.2300E-08  0.1905E-02  0.1707E-05
     10.790    -11.000      0.000  0.1120E+01  0.0000E+00  0.1000E+01  25.000  0.9999  7.7806  0.2234E-02  0.3736E-04  0.7095E-16  0.2235E-02  0.1820E-03  0.6597E-03  0.1109E-07  0.1927E-02  0.2090E-06
     14.340    -11.000      0.000  0.1120E+01  0.0000E+00  0.1000E+01  25.000  0.9999  7.7999  0.2235E-02  0.3730E-04  0.6990E-16  0.2236E-02  0.1821E-03  0.6601E-03  0.1157E-07  0.1928E-02  0.1313E-06
      0.000    -13.000      0.000  0.1315E+01  0.0000E+00  0.1000E+01  25.000  0.9999  6.2254  0.2207E-02  0.3834E-04  0.8652E-08  0.2207E-02  0.1797E-03  0.6514E-03  0.2015E-08  0.1902E-02  0.1864E-05
      0.254    -13.000      0.000  0.1315E+01  0.0000E+00  0.1000E+01  25.000  0.9999  6.5026  0.2209E-02  0.3840E-04  0.5613E-14  0.2209E-02  0.1799E-03  0.6520E-03  0.1471E-08  0.1904E-02  0.1730E-05
      0.900    -13.000      0.000  0.1315E+01  0.0000E+00  0.1000E+01  25.000  0.9999  6.9814  0.2216E-02  0.3814E-04  0.2833E-15  0.2216E-02  0.1805E-03  0.6542E-03  0.2303E-08  0.1910E-02  0.1314E-05
      2.247    -13.000      0.000  0.1315E+01  0.0000E+00  0.1000E+01  25.000  0.9999  7.5261  0.2226E-02  0.3769E-04  0.3899E-16  0.2227E-02  0.1814E-03  0.6573E-03  0.6426E-08  0.1920E-02  0.6890E-06
      5.215    -13.000      0.000  0.1315E+01  0.0000E+00  0.1000E+01  25.000  0.9999  7.7815  0.2234E-02  0.3736E-04  0.1877E-16  0.2235E-02  0.1821E-03  0.6598E-03  0.1110E-07  0.1927E-02  0.1944E-06
     10.790    -13.000      0.000  0.1315E+01  0.0000E+00  0.1000E+01  25.000  0.9999  7.8197  0.2235E-02  0.3730E-04  0.1659E-16  0.2237E-02  0.1822E-03  0.6602E-03  0.1207E-07  0.1928E-02  0.1036E-06
     14.340    -13.000      0.000  0.1315E+01  0.0000E+00  0.1000E+01  25.000  0.9999  7.8214  0.2235E-02  0.3730E-04  0.1649E-16  0.2237E-02  0.1822E-03  0.6603E-03  0.1212E-07  0.1929E-02  0.9978E-07
      0.000    -15.000      0.000  0.1511E+01  0.0000E+00  0.1000E+01  25.000  0.9999  7.5655  0.2233E-02  0.3738E-04  0.1743E-15  0.2235E-02  0.1820E-03  0.6594E-03  0.5428E-08  0.1927E-02  0.2357E-06
      0.254    -15.000      0.000  0.1511E+01  0.0000E+00  0.1000E+01  25.000  0.9999  7.5872  0.2233E-02  0.3737E-04  0.4935E-16  0.2235E-02  0.1820E-03  0.6595E-03  0.6816E-08  0.1927E-02  0.2232E-06
      0.900    -15.000      0.000  0.1511E+01  0.0000E+00  0.1000E+01  25.000  0.9999  7.6509  0.2234E-02  0.3735E-04  0.3338E-16  0.2235E-02  0.1821E-03  0.6597E-03  0.8316E-08  0.1927E-02  0.1862E-06
      2.247    -15.000      0.000  0.1511E+01  0.0000E+00  0.1000E+01  25.000  0.9999  7.7378  0.2235E-02  0.3732E-04  0.2280E-16  0.2236E-02  0.1821E-03  0.6600E-03  0.1008E-07  0.1928E-02  0.1363E-06
      5.215    -15.000      0.000  0.1511E+01  0.0000E+00  0.1000E+01  25.000  0.9999  7.8063  0.2235E-02  0.3730E-04  0.1746E-16  0.2237E-02  0.1822E-03  0.6602E-03  0.1172E-07  0.1928E-02  0.1045E-06
     10.790    -15.000      0.000  0.1511E+01  0.0000E+00  0.1000E+01  25.000  0.9999  7.8207  0.2235E-02  0.3730E-04  0.1653E-16  0.2237E-02  0.1822E-03  0.6603E-03  0.1210E-07  0.1929E-02  0.9988E-07
     14.340    -15.000      0.000  0.1511E+01  0.0000E+00  0.1000E+01  25.000  0.9999  7.8214  0.2235E-02  0.3730E-04  0.1649E-16  0.2237E-02  0.1822E-03  0.6603E-03  0.1212E-07  0.1929E-02  0.9972E-07
      0.000    -17.000      0.000  0.1706E+01  0.0000E+00  0.1000E+01  25.000  0.9999  7.6451  0.2235E-02  0.3731E-04  0.3055E-16  0.2237E-02  0.1822E-03  0.6600E-03  0.6434E-08  0.1928E-02  0.1083E-06
      0.254    -17.000      0.000  0.1706E+01  0.0000E+00  0.1000E+01  25.000  0.9999  7.6572  0.2235E-02  0.3731E-04  0.2923E-16  0.2237E-02  0.1822E-03  0.6601E-03  0.7854E-08  0.1928E-02  0.1074E-06
      0.900    -17.000      0.000  0.1706E+01  0.0000E+00  0.1000E+01  25.000  0.9999  7.6956  0.2235E-02  0.3730E-04  0.2563E-16  0.2237E-02  0.1822E-03  0.6601E-03  0.9149E-08  0.1928E-02  0.1048E-06
      2.247    -17.000      0.000  0.1706E+01  0.0000E+00  0.1000E+01  25.000  0.9999  7.7546  0.2235E-02  0.3730E-04  0.2093E-16  0.2237E-02  0.1822E-03  0.6602E-03  0.1046E-07  0.1929E-02  0.1016E-06
      5.215    -17.000      0.000  0.1706E+01  0.0000E+00  0.1000E+01  25.000  0.9999  7.8084  0.2235E-02  0.3730E-04  0.1730E-16  0.2237E-02  0.1822E-03  0.6603E-03  0.1177E-07  0.1929E-02  0.9993E-07
     10.790    -17.000      0.000  0.1706E+01  0.0000E+00  0.1000E+01  25.000  0.9999  7.8208  0.2235E-02  0.3730E-04  0.1653E-16  0.2237E-02  0.1822E-03  0.6603E-03  0.1210E-07  0.1929E-02  0.9972E-07
     14.340    -17.000      0.000  0.1706E+01  0.0000E+00  0.1000E+01  25.000  0.9999  7.8214  0.2235E-02  0.3730E-04  0.1649E-16  0.2237E-02  0.1822E-03  0.6603E-03  0.1212E-07  0.1929E-02  0.9972E-07
      0.000    -19.000      0.000  0.1902E+01  0.0000E+00  0.1000E+01  25.000  0.9999  7.6500  0.2235E-02  0.3730E-04  0.2974E-16  0.2237E-02  0.1822E-03  0.6601E-03  0.6507E-08  0.1929E-02  0.1002E-06
      0.254    -19.000      0.000  0.1902E+01  0.0000E+00  0.1000E+01  25.000  0.9999  7.6615  0.2235E-02  0.3730E-04  0.2859E-16  0.2237E-02  0.1822E-03  0.6601E-03  0.7925E-08  0.1929E-02  0.1001E-06
      0.900    -19.000      0.000  0.1902E+01  0.0000E+00  0.1000E+01  25.000  0.9999  7.6983  0.2235E-02  0.3730E-04  0.2529E-16  0.2237E-02  0.1822E-03  0.6601E-03  0.9201E-08  0.1929E-02  0.9998E-07
      2.247    -19.000      0.000  0.1902E+01  0.0000E+00  0.1000E+01  25.000  0.9999  7.7555  0.2235E-02  0.3730E-04  0.2085E-16  0.2237E-02  0.1822E-03  0.6602E-03  0.1048E-07  0.1929E-02  0.9981E-07