
          ---- Gas vs. grid blocks at specified times ----

   Unit: 
    - Gas: partial pressure (bar)

VARIABLES =X,        Y,       Z,   T(C),    Sg ,    RH    ,o2(g)      ,
ZONE T= "0.000000E+00 yr"  F=POINT
      0.000     -0.000     0.000  25.000  0.9707E+00   1.000  0.2000E+00
      0.000     -1.000     0.000  25.000  0.7307E+00   1.000  0.2000E+00
      0.254     -1.000     0.000  25.000  0.2384E-01   1.000  0.2000E+00
      0.900     -1.000     0.000  25.000  0.2385E-01   1.000  0.2000E+00
      2.247     -1.000     0.000  25.000  0.2385E-01   1.000  0.2000E+00
      5.215     -1.000     0.000  25.000  0.2386E-01   1.000  0.2000E+00
     10.790     -1.000     0.000  25.000  0.2387E-01   1.000  0.2000E+00
     14.340     -1.000     0.000  25.000  0.2388E-01   1.000  0.2000E+00
      0.000     -3.000     0.000  25.000  0.7420E+00   1.000  0.2000E+00
      0.254     -3.000     0.000  25.000  0.1672E-01   1.000  0.2000E+00
      0.900     -3.000     0.000  25.000  0.1672E-01   1.000  0.2000E+00
      2.247     -3.000     0.000  25.000  0.1672E-01   1.000  0.2000E+00
      5.215     -3.000     0.000  25.000  0.1672E-01   1.000  0.2000E+00
     10.790     -3.000     0.000  25.000  0.1672E-01   1.000  0.2000E+00
     14.340     -3.000     0.000  25.000  0.1672E-01   1.000  0.2000E+00
      0.000     -5.000     0.000  25.000  0.7353E+00   1.000  0.2000E+00
      0.254     -5.000     0.000  25.000  0.1155E-01   1.000  0.2000E+00
      0.900     -5.000     0.000  25.000  0.1155E-01   1.000  0.2000E+00
      2.247     -5.000     0.000  25.000  0.1155E-01   1.000  0.2000E+00
      5.215     -5.000     0.000  25.000  0.1155E-01   1.000  0.2000E+00
     10.790     -5.000     0.000  25.000  0.1155E-01   1.000  0.2000E+00
     14.340     -5.000     0.000  25.000  0.1155E-01   1.000  0.2000E+00
      0.000     -7.000     0.000  25.000  0.6708E+00   1.000  0.2000E+00
      0.254     -7.000     0.000  25.000  0.6729E-02   1.000  0.2000E+00
      0.900     -7.000     0.000  25.000  0.6728E-02   1.000  0.2000E+00
      2.247     -7.000     0.000  25.000  0.6727E-02   1.000  0.2000E+00
      5.215     -7.000     0.000  25.000  0.6725E-02   1.000  0.2000E+00
     10.790     -7.000     0.000  25.000  0.6722E-02   1.000  0.2000E+00
     14.340     -7.000     0.000  25.000  0.6718E-02   1.000  0.2000E+00
      0.000     -9.000     0.000  25.000  0.3356E+00   1.000  0.2000E+00
      0.254     -9.000     0.000  25.000  0.9811E-03   1.000  0.2000E+00
      0.900     -9.000     0.000  25.000  0.9810E-03   1.000  0.2000E+00
      2.247     -9.000     0.000  25.000  0.9809E-03   1.000  0.2000E+00
      5.215     -9.000     0.000  25.000  0.9807E-03   1.000  0.2000E+00
     10.790     -9.000     0.000  25.000  0.9804E-03   1.000  0.2000E+00
     14.340     -9.000     0.000  25.000  0.9800E-03   1.000  0.2000E+00
      0.000    -11.000     0.000  25.000  0.0000E+00   1.000  0.1000E-65
      0.254    -11.000     0.000  25.000  0.0000E+00   1.000  0.1000E-65
      0.900    -11.000     0.000  25.000  0.0000E+00   1.000  0.1000E-65
      2.247    -11.000     0.000  25.000  0.0000E+00   1.000  0.1000E-65
      5.215    -11.000     0.000  25.000  0.0000E+00   1.000  0.1000E-65
     10.790    -11.000     0.000  25.000  0.0000E+00   1.000  0.1000E-65
     14.340    -11.000     0.000  25.000  0.0000E+00   1.000  0.1000E-65
      0.000    -13.000     0.000  25.000  0.0000E+00   1.000  0.1000E-65
      0.254    -13.000     0.000  25.000  0.0000E+00   1.000  0.1000E-65
      0.900    -13.000     0.000  25.000  0.0000E+00   1.000  0.1000E-65
      2.247    -13.000     0.000  25.000  0.0000E+00   1.000  0.1000E-65
      5.215    -13.000     0.000  25.000  0.0000E+00   1.000  0.1000E-65
     10.790    -13.000     0.000  25.000  0.0000E+00   1.000  0.1000E-65
     14.340    -13.000     0.000  25.000  0.0000E+00   1.000  0.1000E-65
      0.000    -15.000     0.000  25.000  0.0000E+00   1.000  0.1000E-65
      0.254    -15.000     0.000  25.000  0.0000E+00   1.000  0.1000E-65
      0.900    -15.000     0.000  25.000  0.0000E+00   1.000  0.1000E-65
      2.247    -15.000     0.000  25.000  0.0000E+00   1.000  0.1000E-65
      5.215    -15.000     0.000  25.000  0.0000E+00   1.000  0.1000E-65
     10.790    -15.000     0.000  25.000  0.0000E+00   1.000  0.1000E-65
     14.340    -15.000     0.000  25.000  0.0000E+00   1.000  0.1000E-65
      0.000    -17.000     0.000  25.000  0.0000E+00   1.000  0.1000E-65
      0.254    -17.000     0.000  25.000  0.0000E+00   1.000  0.1000E-65
      0.900    -17.000     0.000  25.000  0.0000E+00   1.000  0.1000E-65
      2.247    -17.000     0.000  25.000  0.0000E+00   1.000  0.1000E-65
      5.215    -17.000     0.000  25.000  0.0000E+00   1.000  0.1000E-65
     10.790    -17.000     0.000  25.000  0.0000E+00   1.000  0.1000E-65
     14.340    -17.000     0.000  25.000  0.0000E+00   1.000  0.1000E-65
      0.000    -19.000     0.000  25.000  0.0000E+00   1.000  0.1000E-65
      0.254    -19.000     0.000  25.000  0.0000E+00   1.000  0.1000E-65
      0.900    -19.000     0.000  25.000  0.0000E+00   1.000  0.1000E-65
      2.247    -19.000     0.000  25.000  0.0000E+00   1.000  0.1000E-65
      5.215    -19.000     0.000  25.000  0.0000E+00   1.000  0.1000E-65
     10.790    -19.000     0.000  25.000  0.0000E+00   1.000  0.1000E-65
     14.340    -19.000     0.000  25.000  0.0000E+00   1.000  0.1000E-65
      0.000    -20.000     0.000  25.000  0.0000E+00   1.000  0.1000E-65
      0.254    -20.000     0.000  25.000  0.0000E+00   1.000  0.1000E-65
      0.900    -20.000     0.000  25.000  0.0000E+00   1.000  0.1000E-65
      2.247    -20.000     0.000  25.000  0.0000E+00   1.000  0.1000E-65
      5.215    -20.000     0.000  25.000  0.0000E+00   1.000  0.1000E-65
     10.790    -20.000     0.000  25.000  0.0000E+00   1.000  0.1000E-65
     14.340    -20.000     0.000  25.000  0.0000E+00   1.000  0.1000E-65
ZONE T= "0.271853E+00 yr"  F=POINT
      0.000     -0.000     0.000  25.000  0.9707E+00   1.000  0.2000E+00
      0.000     -1.000     0.000  25.000  0.7307E+00   1.000  0.2000E+00
      0.254     -1.000     0.000  25.000  0.2390E-01   1.000  0.1999E+00
      0.900     -1.000     0.000  25.000  0.2390E-01   1.000  0.1999E+00
      2.247     -1.000     0.000  25.000  0.2391E-01   1.000  0.1999E+00
      5.215     -1.000     0.000  25.000  0.2391E-01   1.000  0.1999E+00
     10.790     -1.000     0.000  25.000  0.2393E-01   1.000  0.1999E+00
     14.340     -1.000     0.000  25.000  0.2394E-01   1.000  0.1999E+00
      0.000     -3.000     0.000  25.000  0.7421E+00   1.000  0.2000E+00
      0.254     -3.000     0.000  25.000  0.1676E-01   1.000  0.1999E+00
      0.900     -3.000     0.000  25.000  0.1676E-01   1.000  0.1999E+00
      2.247     -3.000     0.000  25.000  0.1676E-01   1.000  0.1999E+00
      5.215     -3.000     0.000  25.000  0.1677E-01   1.000  0.1999E+00
     10.790     -3.000     0.000  25.000  0.1677E-01   1.000  0.1999E+00
     14.340     -3.000     0.000  25.000  0.1677E-01   1.000  0.1999E+00
      0.000     -5.000     0.000  25.000  0.7355E+00   1.000  0.2000E+00
      0.254     -5.000     0.000  25.000  0.1158E-01   1.000  0.1999E+00
      0.900     -5.000     0.000  25.000  0.1158E-01   1.000  0.1999E+00
      2.247     -5.000     0.000  25.000  0.1158E-01   1.000  0.1999E+00
      5.215     -5.000     0.000  25.000  0.1158E-01   1.000  0.1999E+00
     10.790     -5.000     0.000  25.000  0.1158E-01   1.000  0.1999E+00
     14.340     -5.000     0.000  25.000  0.1158E-01   1.000  0.1999E+00
      0.000     -7.000     0.000  25.000  0.6709E+00   1.000  0.2000E+00
      0.254     -7.000     0.000  25.000  0.6735E-02   1.000  0.1935E+00
      0.900     -7.000     0.000  25.000  0.6735E-02   1.000  0.1745E+00
      2.247     -7.000     0.000  25.000  0.6734E-02   1.000  0.1454E+00
      5.215     -7.000     0.000  25.000  0.6732E-02   1.000  0.1206E+00
     10.790     -7.000     0.000  25.000  0.6729E-02   1.000  0.1155E+00
     14.340     -7.000     0.000  25.000  0.6725E-02   1.000  0.1152E+00
      0.000     -9.000     0.000  25.000  0.3356E+00   1.000  0.2000E+00
      0.254     -9.000     0.000  25.000  0.9811E-03   1.000  0.1937E+00
      0.900     -9.000     0.000  25.000  0.9810E-03   1.000  0.1747E+00
      2.247     -9.000     0.000  25.000  0.9809E-03   1.000  0.1452E+00
      5.215     -9.000     0.000  25.000  0.9807E-03   1.000  0.1198E+00
     10.790     -9.000     0.000  25.000  0.9804E-03   1.000  0.1145E+00
     14.340     -9.000     0.000  25.000  0.9800E-03   1.000  0.1143E+00
      0.000    -11.000     0.000  25.000  0.0000E+00   1.000  0.2482E-03
      0.254    -11.000     0.000  25.000  0.0000E+00   1.000  0.1583E-23
      0.900    -11.000     0.000  25.000  0.0000E+00   1.000  0.6757E-64
      2.247    -11.000     0.000  25.000  0.0000E+00   1.000  0.6091E-65
      5.215    -11.000     0.000  25.000  0.0000E+00   1.000  0.7195E-66
     10.790    -11.000     0.000  25.000  0.0000E+00   1.000  0.2491E-66
     14.340    -11.000     0.000  25.000  0.0000E+00   1.000  0.2429E-66
      0.000    -13.000     0.000  25.000  0.0000E+00   1.000  0.1498E-59
      0.254    -13.000     0.000  25.000  0.0000E+00   1.000  0.1365E-65
      0.900    -13.000     0.000  25.000  0.0000E+00   1.000  0.7155E-66
      2.247    -13.000     0.000  25.000  0.0000E+00   1.000  0.1767E-66
      5.215    -13.000     0.000  25.000  0.0000E+00   1.000  0.8528E-67
     10.790    -13.000     0.000  25.000  0.0000E+00   1.000  0.7538E-67
     14.340    -13.000     0.000  25.000  0.0000E+00   1.000  0.7493E-67
      0.000    -15.000     0.000  25.000  0.0000E+00   1.000  0.2522E-66
      0.254    -15.000     0.000  25.000  0.0000E+00   1.000  0.2161E-66
      0.900    -15.000     0.000  25.000  0.0000E+00   1.000  0.1517E-66
      2.247    -15.000     0.000  25.000  0.0000E+00   1.000  0.1036E-66
      5.215    -15.000     0.000  25.000  0.0000E+00   1.000  0.7937E-67
     10.790    -15.000     0.000  25.000  0.0000E+00   1.000  0.7514E-67
     14.340    -15.000     0.000  25.000  0.0000E+00   1.000  0.7493E-67
      0.000    -17.000     0.000  25.000  0.0000E+00   1.000  0.1387E-66
      0.254    -17.000     0.000  25.000  0.0000E+00   1.000  0.1329E-66
      0.900    -17.000     0.000  25.000  0.0000E+00   1.000  0.1165E-66
      2.247    -17.000     0.000  25.000  0.0000E+00   1.000  0.9515E-67
      5.215    -17.000     0.000  25.000  0.0000E+00   1.000  0.7861E-67
     10.790    -17.000     0.000  25.000  0.0000E+00   1.000  0.7512E-67
     14.340    -17.000     0.000  25.000  0.0000E+00   1.000  0.7493E-67
      0.000    -19.000     0.000  25.000  0.0000E+00   1.000  0.1352E-66
      0.254    -19.000     0.000  25.000  0.0000E+00   1.000  0.1299E-66
      0.900    -19.000     0.000  25.000  0.0000E+00   1.000  0.1149E-66
      2.247    -19.000     0.000  25.000  0.0000E+00   1.000  0.9474E-67
      5.215    -19.000     0.000  25.000  0.0000E+00   1.000  0.7858E-67
     10.790    -19.000     0.000  25.000  0.0000E+00   1.000  0.7512E-67
     14.340    -19.000     0.000  25.000  0.0000E+00   1.000  0.7493E-67
      0.000    -20.000     0.000  25.000  0.0000E+00   1.000  0.1000E-39
      0.254    -20.000     0.000  25.000  0.0000E+00   1.000  0.1000E-39
      0.900    -20.000     0.000  25.000  0.0000E+00   1.000  0.1000E-39
      2.247    -20.000     0.000  25.000  0.0000E+00   1.000  0.1000E-39
      5.215    -20.000     0.000  25.000  0.0000E+00   1.000  0.1000E-39
     10.790    -20.000     0.000  25.000  0.0000E+00   1.000  0.1000E-39
     14.340    -20.000     0.000  25.000  0.0000E+00   1.000  0.1000E-39
ZONE T= "0.545644E+00 yr"  F=POINT
      0.000     -0.000     0.000  25.000  0.9707E+00   1.000  0.2000E+00
      0.000     -1.000     0.000  25.000  0.7308E+00   1.000  0.2000E+00
      0.254     -1.000     0.000  25.000  0.2393E-01   1.000  0.1999E+00
      0.900     -1.000     0.000  25.000  0.2393E-01   1.000  0.1999E+00
      2.247     -1.000     0.000  25.000  0.2394E-01   1.000  0.1999E+00
      5.215     -1.000     0.000  25.000  0.2394E-01   1.000  0.1999E+00
     10.790     -1.000     0.000  25.000  0.2396E-01   1.000  0.1999E+00
     14.340     -1.000     0.000  25.000  0.2397E-01   1.000  0.1999E+00
      0.000     -3.000     0.000  25.000  0.7422E+00   1.000  0.2000E+00
      0.254     -3.000     0.000  25.000  0.1679E-01   1.000  0.1999E+00
      0.900     -3.000     0.000  25.000  0.1679E-01   1.000  0.1999E+00
      2.247     -3.000     0.000  25.000  0.1679E-01   1.000  0.1999E+00
      5.215     -3.000     0.000  25.000  0.1679E-01   1.000  0.1999E+00
     10.790     -3.000     0.000  25.000  0.1679E-01   1.000  0.1999E+00
     14.340     -3.000     0.000  25.000  0.1679E-01   1.000  0.1999E+00
      0.000     -5.000     0.000  25.000  0.7356E+00   1.000  0.2000E+00
      0.254     -5.000     0.000  25.000  0.1159E-01   1.000  0.1999E+00
      0.900     -5.000     0.000  25.000  0.1159E-01   1.000  0.1999E+00
      2.247     -5.000     0.000  25.000  0.1159E-01   1.000  0.1999E+00
      5.215     -5.000     0.000  25.000  0.1159E-01   1.000  0.1999E+00
     10.790     -5.000     0.000  25.000  0.1159E-01   1.000  0.1999E+00
     14.340     -5.000     0.000  25.000  0.1159E-01   1.000  0.1999E+00
      0.000     -7.000     0.000  25.000  0.6710E+00   1.000  0.2000E+00
      0.254     -7.000     0.000  25.000  0.6738E-02   1.000  0.1908E+00
      0.900     -7.000     0.000  25.000  0.6738E-02   1.000  0.1629E+00
      2.247     -7.000     0.000  25.000  0.6737E-02   1.000  0.1150E+00
      5.215     -7.000     0.000  25.000  0.6735E-02   1.000  0.5769E-01
     10.790     -7.000     0.000  25.000  0.6732E-02   1.000  0.3398E-01
     14.340     -7.000     0.000  25.000  0.6728E-02   1.000  0.3154E-01
      0.000     -9.000     0.000  25.000  0.3356E+00   1.000  0.2000E+00
      0.254     -9.000     0.000  25.000  0.9811E-03   1.000  0.1910E+00
      0.900     -9.000     0.000  25.000  0.9811E-03   1.000  0.1629E+00
      2.247     -9.000     0.000  25.000  0.9810E-03   1.000  0.1143E+00
      5.215     -9.000     0.000  25.000  0.9807E-03   1.000  0.5523E-01
     10.790     -9.000     0.000  25.000  0.9804E-03   1.000  0.3027E-01
     14.340     -9.000     0.000  25.000  0.9800E-03   1.000  0.2766E-01
      0.000    -11.000     0.000  25.000  0.0000E+00   1.000  0.1179E-20
      0.254    -11.000     0.000  25.000  0.0000E+00   1.000  0.7184E-24
      0.900    -11.000     0.000  25.000  0.0000E+00   1.000  0.2084E-58
      2.247    -11.000     0.000  25.000  0.0000E+00   1.000  0.1090E-64
      5.215    -11.000     0.000  25.000  0.0000E+00   1.000  0.7789E-66
     10.790    -11.000     0.000  25.000  0.0000E+00   1.000  0.1208E-66
     14.340    -11.000     0.000  25.000  0.0000E+00   1.000  0.8129E-67
      0.000    -13.000     0.000  25.000  0.0000E+00   1.000  0.4853E-59
      0.254    -13.000     0.000  25.000  0.0000E+00   1.000  0.2385E-65
      0.900    -13.000     0.000  25.000  0.0000E+00   1.000  0.7593E-66
      2.247    -13.000     0.000  25.000  0.0000E+00   1.000  0.8878E-67
      5.215    -13.000     0.000  25.000  0.0000E+00   1.000  0.3262E-67
     10.790    -13.000     0.000  25.000  0.0000E+00   1.000  0.2396E-67
     14.340    -13.000     0.000  25.000  0.0000E+00   1.000  0.2323E-67
      0.000    -15.000     0.000  25.000  0.0000E+00   1.000  0.6680E-67
      0.254    -15.000     0.000  25.000  0.0000E+00   1.000  0.6180E-67
      0.900    -15.000     0.000  25.000  0.0000E+00   1.000  0.4952E-67
      2.247    -15.000     0.000  25.000  0.0000E+00   1.000  0.3621E-67
      5.215    -15.000     0.000  25.000  0.0000E+00   1.000  0.2650E-67
     10.790    -15.000     0.000  25.000  0.0000E+00   1.000  0.2351E-67
     14.340    -15.000     0.000  25.000  0.0000E+00   1.000  0.2321E-67
      0.000    -17.000     0.000  25.000  0.0000E+00   1.000  0.3908E-67
      0.254    -17.000     0.000  25.000  0.0000E+00   1.000  0.3809E-67
      0.900    -17.000     0.000  25.000  0.0000E+00   1.000  0.3507E-67
      2.247    -17.000     0.000  25.000  0.0000E+00   1.000  0.3043E-67
      5.215    -17.000     0.000  25.000  0.0000E+00   1.000  0.2548E-67
     10.790    -17.000     0.000  25.000  0.0000E+00   1.000  0.2344E-67
     14.340    -17.000     0.000  25.000  0.0000E+00   1.000  0.2321E-67
      0.000    -19.000     0.000  25.000  0.0000E+00   1.000  0.3735E-67
      0.254    -19.000     0.000  25.000  0.0000E+00   1.000  0.3654E-67
      0.900    -19.000     0.000  25.000  0.0000E+00   1.000  0.3402E-67
      2.247    -19.000     0.000  25.000  0.0000E+00   1.000  0.2997E-67
      5.215    -19.000     0.000  25.000  0.0000E+00   1.000  0.2540E-67
     10.790    -19.000     0.000  25.000  0.0000E+00   1.000  0.2344E-67
     14.340    -19.000     0.000  25.000  0.0000E+00   1.000  0.2321E-67
      0.000    -20.000     0.000  25.000  0.0000E+00   1.000  0.1000E-39
      0.254    -20.000     0.000  25.000  0.0000E+00   1.000  0.1000E-39
      0.900    -20.000     0.000  25.000  0.0000E+00   1.000  0.1000E-39
      2.247    -20.000     0.000  25.000  0.0000E+00   1.000  0.1000E-39
      5.215    -20.000     0.000  25.000  0.0000E+00   1.000  0.1000E-39
     10.790    -20.000     0.000  25.000  0.0000E+00   1.000  0.1000E-39
     14.340    -20.000     0.000  25.000  0.0000E+00   1.000  0.1000E-39
ZONE T= "0.819435E+00 yr"  F=POINT
      0.000     -0.000     0.000  25.000  0.9707E+00   1.000  0.2000E+00
      0.000     -1.000     0.000  25.000  0.7308E+00   1.000  0.2000E+00
      0.254     -1.000     0.000  25.000  0.2395E-01   1.000  0.1999E+00
      0.900     -1.000     0.000  25.000  0.2395E-01   1.000  0.1999E+00
      2.247     -1.000     0.000  25.000  0.2395E-01   1.000  0.1999E+00
      5.215     -1.000     0.000  25.000  0.2396E-01   1.000  0.1999E+00
     10.790     -1.000     0.000  25.000  0.2397E-01   1.000  0.1999E+00
     14.340     -1.000     0.000  25.000  0.2398E-01   1.000  0.1999E+00
      0.000     -3.000     0.000  25.000  0.7422E+00   1.000  0.2000E+00
      0.254     -3.000     0.000  25.000  0.1680E-01   1.000  0.1999E+00
      0.900     -3.000     0.000  25.000  0.1680E-01   1.000  0.1999E+00
      2.247     -3.000     0.000  25.000  0.1680E-01   1.000  0.1999E+00
      5.215     -3.000     0.000  25.000  0.1680E-01   1.000  0.1999E+00
     10.790     -3.000     0.000  25.000  0.1680E-01   1.000  0.1999E+00
     14.340     -3.000     0.000  25.000  0.1681E-01   1.000  0.1999E+00
      0.000     -5.000     0.000  25.000  0.7356E+00   1.000  0.2000E+00
      0.254     -5.000     0.000  25.000  0.1160E-01   1.000  0.1999E+00
      0.900     -5.000     0.000  25.000  0.1160E-01   1.000  0.1999E+00
      2.247     -5.000     0.000  25.000  0.1160E-01   1.000  0.1999E+00
      5.215     -5.000     0.000  25.000  0.1160E-01   1.000  0.1999E+00
     10.790     -5.000     0.000  25.000  0.1160E-01   1.000  0.1999E+00
     14.340     -5.000     0.000  25.000  0.1160E-01   1.000  0.1999E+00
      0.000     -7.000     0.000  25.000  0.6710E+00   1.000  0.2000E+00
      0.254     -7.000     0.000  25.000  0.6740E-02   1.000  0.1888E+00
      0.900     -7.000     0.000  25.000  0.6739E-02   1.000  0.1542E+00
      2.247     -7.000     0.000  25.000  0.6739E-02   1.000  0.9202E-01
      5.215     -7.000     0.000  25.000  0.6737E-02   1.000  0.9253E-02
     10.790     -7.000     0.000  25.000  0.6733E-02   1.000  0.1480E-64
     14.340     -7.000     0.000  25.000  0.6730E-02   1.000  0.1339E-64
      0.000     -9.000     0.000  25.000  0.3356E+00   1.000  0.2000E+00
      0.254     -9.000     0.000  25.000  0.9811E-03   1.000  0.1890E+00
      0.900     -9.000     0.000  25.000  0.9811E-03   1.000  0.1540E+00
      2.247     -9.000     0.000  25.000  0.9810E-03   1.000  0.9058E-01
      5.215     -9.000     0.000  25.000  0.9807E-03   1.000  0.5295E-02
     10.790     -9.000     0.000  25.000  0.9804E-03   1.000  0.1337E-64
     14.340     -9.000     0.000  25.000  0.9800E-03   1.000  0.1212E-64
      0.000    -11.000     0.000  25.000  0.0000E+00   1.000  0.3108E-22
      0.254    -11.000     0.000  25.000  0.0000E+00   1.000  0.2457E-24
      0.900    -11.000     0.000  25.000  0.0000E+00   1.000  0.8423E-58
      2.247    -11.000     0.000  25.000  0.0000E+00   1.000  0.1437E-64
      5.215    -11.000     0.000  25.000  0.0000E+00   1.000  0.8472E-66
     10.790    -11.000     0.000  25.000  0.0000E+00   1.000  0.2332E-67
     14.340    -11.000     0.000  25.000  0.0000E+00   1.000  0.1727E-67
      0.000    -13.000     0.000  25.000  0.0000E+00   1.000  0.5620E-58
      0.254    -13.000     0.000  25.000  0.0000E+00   1.000  0.3217E-65
      0.900    -13.000     0.000  25.000  0.0000E+00   1.000  0.8227E-66
      2.247    -13.000     0.000  25.000  0.0000E+00   1.000  0.5797E-67
      5.215    -13.000     0.000  25.000  0.0000E+00   1.000  0.1957E-67
     10.790    -13.000     0.000  25.000  0.0000E+00   1.000  0.1277E-67
     14.340    -13.000     0.000  25.000  0.0000E+00   1.000  0.1198E-67
      0.000    -15.000     0.000  25.000  0.0000E+00   1.000  0.3348E-67
      0.254    -15.000     0.000  25.000  0.0000E+00   1.000  0.3151E-67
      0.900    -15.000     0.000  25.000  0.0000E+00   1.000  0.2627E-67
      2.247    -15.000     0.000  25.000  0.0000E+00   1.000  0.1986E-67
      5.215    -15.000     0.000  25.000  0.0000E+00   1.000  0.1456E-67
     10.790    -15.000     0.000  25.000  0.0000E+00   1.000  0.1421E-67
     14.340    -15.000     0.000  25.000  0.0000E+00   1.000  0.1404E-67
      0.000    -17.000     0.000  25.000  0.0000E+00   1.000  0.1902E-67
      0.254    -17.000     0.000  25.000  0.0000E+00   1.000  0.1872E-67
      0.900    -17.000     0.000  25.000  0.0000E+00   1.000  0.1781E-67
      2.247    -17.000     0.000  25.000  0.0000E+00   1.000  0.1662E-67
      5.215    -17.000     0.000  25.000  0.0000E+00   1.000  0.1517E-67
     10.790    -17.000     0.000  25.000  0.0000E+00   1.000  0.1376E-67
     14.340    -17.000     0.000  25.000  0.0000E+00   1.000  0.1197E-67
      0.000    -19.000     0.000  25.000  0.0000E+00   1.000  0.1784E-67
      0.254    -19.000     0.000  25.000  0.0000E+00   1.000  0.1762E-67
      0.900    -19.000     0.000  25.000  0.0000E+00   1.000  0.1695E-67
      2.247    -19.000     0.000  25.000  0.0000E+00   1.000  0.1610E-67
      5.215    -19.000     0.000  25.000  0.0000E+00   1.000  0.1492E-67
     10.790    -19.000     0.000  25.000  0.0000E+00   1.000  0.1357E-67
     14.340    -19.000     0.000  25.000  0.0000E+00   1.000  0.1197E-67
      0.000    -20.000     0.000  25.000  0.0000E+00   1.000  0.1000E-39
      0.254    -20.000     0.000  25.000  0.0000E+00   1.000  0.1000E-39
      0.900    -20.000     0.000  25.000  0.0000E+00   1.000  0.1000E-39
      2.247    -20.000     0.000  25.000  0.0000E+00   1.000  0.1000E-39
      5.215    -20.000     0.000  25.000  0.0000E+00   1.000  0.1000E-39
     10.790    -20.000     0.000  25.000  0.0000E+00   1.000  0.1000E-39
     14.340    -20.000     0.000  25.000  0.0000E+00   1.000  0.1000E-39
ZONE T= "0.100000E+01 yr"  F=POINT
      0.000     -0.000     0.000  25.000  0.9707E+00   1.000  0.2000E+00
      0.000     -1.000     0.000  25.000  0.7308E+00   1.000  0.2000E+00
      0.254     -1.000     0.000  25.000  0.2395E-01   1.000  0.1999E+00
      0.900     -1.000     0.000  25.000  0.2395E-01   1.000  0.1999E+00
      2.247     -1.000     0.000  25.000  0.2396E-01   1.000  0.1999E+00
      5.215     -1.000     0.000  25.000  0.2396E-01   1.000  0.1999E+00
     10.790     -1.000     0.000  25.000  0.2398E-01   1.000  0.1999E+00
     14.340     -1.000     0.000  25.000  0.2399E-01   1.000  0.1999E+00
      0.000     -3.000     0.000  25.000  0.7422E+00   1.000  0.2000E+00
      0.254     -3.000     0.000  25.000  0.1680E-01   1.000  0.1999E+00
      0.900     -3.000     0.000  25.000  0.1680E-01   1.000  0.1999E+00
      2.247     -3.000     0.000  25.000  0.1680E-01   1.000  0.1999E+00
      5.215     -3.000     0.000  25.000  0.1681E-01   1.000  0.1999E+00
     10.790     -3.000     0.000  25.000  0.1681E-01   1.000  0.1999E+00
     14.340     -3.000     0.000  25.000  0.1681E-01   1.000  0.1999E+00
      0.000     -5.000     0.000  25.000  0.7356E+00   1.000  0.2000E+00
      0.254     -5.000     0.000  25.000  0.1160E-01   1.000  0.1999E+00
      0.900     -5.000     0.000  25.000  0.1160E-01   1.000  0.1999E+00
      2.247     -5.000     0.000  25.000  0.1160E-01   1.000  0.1999E+00
      5.215     -5.000     0.000  25.000  0.1160E-01   1.000  0.1999E+00
     10.790     -5.000     0.000  25.000  0.1160E-01   1.000  0.1999E+00
     14.340     -5.000     0.000  25.000  0.1160E-01   1.000  0.1999E+00
      0.000     -7.000     0.000  25.000  0.6710E+00   1.000  0.2000E+00
      0.254     -7.000     0.000  25.000  0.6740E-02   1.000  0.1878E+00
      0.900     -7.000     0.000  25.000  0.6740E-02   1.000  0.1501E+00
      2.247     -7.000     0.000  25.000  0.6739E-02   1.000  0.8135E-01
      5.215     -7.000     0.000  25.000  0.6737E-02   1.000  0.2355E-53
     10.790     -7.000     0.000  25.000  0.6734E-02   1.000  0.1479E-64
     14.340     -7.000     0.000  25.000  0.6730E-02   1.000  0.1310E-64
      0.000     -9.000     0.000  25.000  0.3356E+00   1.000  0.2000E+00
      0.254     -9.000     0.000  25.000  0.9811E-03   1.000  0.1880E+00
      0.900     -9.000     0.000  25.000  0.9811E-03   1.000  0.1498E+00
      2.247     -9.000     0.000  25.000  0.9810E-03   1.000  0.7977E-01
      5.215     -9.000     0.000  25.000  0.9807E-03   1.000  0.2010E-57
     10.790     -9.000     0.000  25.000  0.9804E-03   1.000  0.1299E-64
     14.340     -9.000     0.000  25.000  0.9800E-03   1.000  0.1139E-64
      0.000    -11.000     0.000  25.000  0.0000E+00   1.000  0.9507E-23
      0.254    -11.000     0.000  25.000  0.0000E+00   1.000  0.1465E-24
      0.900    -11.000     0.000  25.000  0.0000E+00   1.000  0.1326E-57
      2.247    -11.000     0.000  25.000  0.0000E+00   1.000  0.1639E-64
      5.215    -11.000     0.000  25.000  0.0000E+00   1.000  0.8984E-66
     10.790    -11.000     0.000  25.000  0.0000E+00   1.000  0.1556E-67
     14.340    -11.000     0.000  25.000  0.0000E+00   1.000  0.1131E-67
      0.000    -13.000     0.000  25.000  0.0000E+00   1.000  0.1980E-52
      0.254    -13.000     0.000  25.000  0.0000E+00   1.000  0.3747E-65
      0.900    -13.000     0.000  25.000  0.0000E+00   1.000  0.8859E-66
      2.247    -13.000     0.000  25.000  0.0000E+00   1.000  0.5079E-67
      5.215    -13.000     0.000  25.000  0.0000E+00   1.000  0.1653E-67
     10.790    -13.000     0.000  25.000  0.0000E+00   1.000  0.9613E-68
     14.340    -13.000     0.000  25.000  0.0000E+00   1.000  0.8815E-68
      0.000    -15.000     0.000  25.000  0.0000E+00   1.000  0.2599E-67
      0.254    -15.000     0.000  25.000  0.0000E+00   1.000  0.2451E-67
      0.900    -15.000     0.000  25.000  0.0000E+00   1.000  0.2047E-67
      2.247    -15.000     0.000  25.000  0.0000E+00   1.000  0.1547E-67
      5.215    -15.000     0.000  25.000  0.0000E+00   1.000  0.1123E-67
     10.790    -15.000     0.000  25.000  0.0000E+00   1.000  0.1018E-67
     14.340    -15.000     0.000  25.000  0.0000E+00   1.000  0.9948E-68
      0.000    -17.000     0.000  25.000  0.0000E+00   1.000  0.1452E-67
      0.254    -17.000     0.000  25.000  0.0000E+00   1.000  0.1433E-67
      0.900    -17.000     0.000  25.000  0.0000E+00   1.000  0.1376E-67
      2.247    -17.000     0.000  25.000  0.0000E+00   1.000  0.1292E-67
      5.215    -17.000     0.000  25.000  0.0000E+00   1.000  0.1158E-67
     10.790    -17.000     0.000  25.000  0.0000E+00   1.000  0.9872E-68
     14.340    -17.000     0.000  25.000  0.0000E+00   1.000  0.8824E-68
      0.000    -19.000     0.000  25.000  0.0000E+00   1.000  0.1327E-67
      0.254    -19.000     0.000  25.000  0.0000E+00   1.000  0.1313E-67
      0.900    -19.000     0.000  25.000  0.0000E+00   1.000  0.1269E-67
      2.247    -19.000     0.000  25.000  0.0000E+00   1.000  0.1196E-67
      5.215    -19.000     0.000  25.000  0.0000E+00   1.000  0.1101E-67
     10.790    -19.000     0.000  25.000  0.0000E+00   1.000  0.9746E-68
     14.340    -19.000     0.000  25.000  0.0000E+00   1.000  0.8818E-68
      0.000    -20.000     0.000  25.000  0.0000E+00   1.000  0.1000E-39
      0.254    -20.000     0.000  25.000  0.0000E+00   1.000  0.1000E-39
      0.900    -20.000     0.000  25.000  0.0000E+00   1.000  0.1000E-39
      2.247    -20.000     0.000  25.000  0.0000E+00   1.000  0.1000E-39
      5.215    -20.000     0.000  25.000  0.0000E+00   1.000  0.1000E-39
     10.790    -20.000     0.000  25.000  0.0000E+00   1.000  0.1000E-39
     14.340    -20.000     0.000  25.000  0.0000E+00   1.000  0.1000E-39
