
          ---- Changes of mineral abundance (or/and exchanged species concentrations) vs. grid blocks at specified times ----

   Unit: 
               
    - Mineral: Changes of abundance in volume fraction      

VARIABLES =X,       Y,       Z,     T(C), Porosity,   Poros_Chg,   Permx(m^2),  Kx/Kx0,   Permz(m^2),  Kz/Kz0 ,pyrite     ,chalcopyrit,magnetite  ,k-feldspar ,albite     ,anorthite  ,annite     ,muscovite  ,anhydrite  ,goethite   ,chalcocite ,covellite  ,kaolinite  ,sio2(am)   ,alunite    ,
ZONE T= "0.000000E+00 yr"  F=POINT
      0.000     -0.000      0.000   25.000  0.90000  0.00000E+00  0.60260E-10  0.1000E+01  0.60260E-10  0.1000E+01  0.0000E+00  0.0000E+00  0.0000E+00  0.0000E+00  0.0000E+00  0.0000E+00  0.0000E+00  0.0000E+00  0.0000E+00  0.0000E+00  0.0000E+00  0.0000E+00  0.0000E+00  0.0000E+00  0.0000E+00
      0.000     -1.000      0.000   25.000  0.50000  0.00000E+00  0.10000E-11  0.1000E+01  0.10000E-11  0.1000E+01  0.0000E+00  0.0000E+00  0.0000E+00  0.0000E+00  0.0000E+00  0.0000E+00  0.0000E+00  0.0000E+00  0.0000E+00  0.0000E+00  0.0000E+00  0.0000E+00  0.0000E+00  0.0000E+00  0.0000E+00
      0.254     -1.000      0.000   25.000  0.08000  0.00000E+00  0.10000E-15  0.1000E+01  0.10000E-15  0.1000E+01  0.0000E+00  0.0000E+00  0.0000E+00  0.0000E+00  0.0000E+00  0.0000E+00  0.0000E+00  0.0000E+00  0.0000E+00  0.0000E+00  0.0000E+00  0.0000E+00  0.0000E+00  0.0000E+00  0.0000E+00
      0.900     -1.000      0.000   25.000  0.08000  0.00000E+00  0.10000E-15  0.1000E+01  0.10000E-15  0.1000E+01  0.0000E+00  0.0000E+00  0.0000E+00  0.0000E+00  0.0000E+00  0.0000E+00  0.0000E+00  0.0000E+00  0.0000E+00  0.0000E+00  0.0000E+00  0.0000E+00  0.0000E+00  0.0000E+00  0.0000E+00
      2.247     -1.000      0.000   25.000  0.08000  0.00000E+00  0.10000E-15  0.1000E+01  0.10000E-15  0.1000E+01  0.0000E+00  0.0000E+00  0.0000E+00  0.0000E+00  0.0000E+00  0.0000E+00  0.0000E+00  0.0000E+00  0.0000E+00  0.0000E+00  0.0000E+00  0.0000E+00  0.0000E+00  0.0000E+00  0.0000E+00
      5.215     -1.000      0.000   25.000  0.08000  0.00000E+00  0.10000E-15  0.1000E+01  0.10000E-15  0.1000E+01  0.0000E+00  0.0000E+00  0.0000E+00  0.0000E+00  0.0000E+00  0.0000E+00  0.0000E+00  0.0000E+00  0.0000E+00  0.0000E+00  0.0000E+00  0.0000E+00  0.0000E+00  0.0000E+00  0.0000E+00
     10.790     -1.000      0.000   25.000  0.08000  0.00000E+00  0.10000E-15  0.1000E+01  0.10000E-15  0.1000E+01  0.0000E+00  0.0000E+00  0.0000E+00  0.0000E+00  0.0000E+00  0.0000E+00  0.0000E+00  0.0000E+00  0.0000E+00  0.0000E+00  0.0000E+00  0.0000E+00  0.0000E+00  0.0000E+00  0.0000E+00
     14.340     -1.000      0.000   25.000  0.08000  0.00000E+00  0.10000E-15  0.1000E+01  0.10000E-15  0.1000E+01  0.0000E+00  0.0000E+00  0.0000E+00  0.0000E+00  0.0000E+00  0.0000E+00  0.0000E+00  0.0000E+00  0.0000E+00  0.0000E+00  0.0000E+00  0.0000E+00  0.0000E+00  0.0000E+00  0.0000E+00
      0.000     -3.000      0.000   25.000  0.50000  0.00000E+00  0.10000E-11  0.1000E+01  0.10000E-11  0.1000E+01  0.0000E+00  0.0000E+00  0.0000E+00  0.0000E+00  0.0000E+00  0.0000E+00  0.0000E+00  0.0000E+00  0.0000E+00  0.0000E+00  0.0000E+00  0.0000E+00  0.0000E+00  0.0000E+00  0.0000E+00
      0.254     -3.000      0.000   25.000  0.08000  0.00000E+00  0.10000E-15  0.1000E+01  0.10000E-15  0.1000E+01  0.0000E+00  0.0000E+00  0.0000E+00  0.0000E+00  0.0000E+00  0.0000E+00  0.0000E+00  0.0000E+00  0.0000E+00  0.0000E+00  0.0000E+00  0.0000E+00  0.0000E+00  0.0000E+00  0.0000E+00
      0.900     -3.000      0.000   25.000  0.08000  0.00000E+00  0.10000E-15  0.1000E+01  0.10000E-15  0.1000E+01  0.0000E+00  0.0000E+00  0.0000E+00  0.0000E+00  0.0000E+00  0.0000E+00  0.0000E+00  0.0000E+00  0.0000E+00  0.0000E+00  0.0000E+00  0.0000E+00  0.0000E+00  0.0000E+00  0.0000E+00
      2.247     -3.000      0.000   25.000  0.08000  0.00000E+00  0.10000E-15  0.1000E+01  0.10000E-15  0.1000E+01  0.0000E+00  0.0000E+00  0.0000E+00  0.0000E+00  0.0000E+00  0.0000E+00  0.0000E+00  0.0000E+00  0.0000E+00  0.0000E+00  0.0000E+00  0.0000E+00  0.0000E+00  0.0000E+00  0.0000E+00
      5.215     -3.000      0.000   25.000  0.08000  0.00000E+00  0.10000E-15  0.1000E+01  0.10000E-15  0.1000E+01  0.0000E+00  0.0000E+00  0.0000E+00  0.0000E+00  0.0000E+00  0.0000E+00  0.0000E+00  0.0000E+00  0.0000E+00  0.0000E+00  0.0000E+00  0.0000E+00  0.0000E+00  0.0000E+00  0.0000E+00
     10.790     -3.000      0.000   25.000  0.08000  0.00000E+00  0.10000E-15  0.1000E+01  0.10000E-15  0.1000E+01  0.0000E+00  0.0000E+00  0.0000E+00  0.0000E+00  0.0000E+00  0.0000E+00  0.0000E+00  0.0000E+00  0.0000E+00  0.0000E+00  0.0000E+00  0.0000E+00  0.0000E+00  0.0000E+00  0.0000E+00
     14.340     -3.000      0.000   25.000  0.08000  0.00000E+00  0.10000E-15  0.1000E+01  0.10000E-15  0.1000E+01  0.0000E+00  0.0000E+00  0.0000E+00  0.0000E+00  0.0000E+00  0.0000E+00  0.0000E+00  0.0000E+00  0.0000E+00  0.0000E+00  0.0000E+00  0.0000E+00  0.0000E+00  0.0000E+00  0.0000E+00
      0.000     -5.000      0.000   25.000  0.50000  0.00000E+00  0.10000E-11  0.1000E+01  0.10000E-11  0.1000E+01  0.0000E+00  0.0000E+00  0.0000E+00  0.0000E+00  0.0000E+00  0.0000E+00  0.0000E+00  0.0000E+00  0.0000E+00  0.0000E+00  0.0000E+00  0.0000E+00  0.0000E+00  0.0000E+00  0.0000E+00
      0.254     -5.000      0.000   25.000  0.08000  0.00000E+00  0.10000E-15  0.1000E+01  0.10000E-15  0.1000E+01  0.0000E+00  0.0000E+00  0.0000E+00  0.0000E+00  0.0000E+00  0.0000E+00  0.0000E+00  0.0000E+00  0.0000E+00  0.0000E+00  0.0000E+00  0.0000E+00  0.0000E+00  0.0000E+00  0.0000E+00
      0.900     -5.000      0.000   25.000  0.08000  0.00000E+00  0.10000E-15  0.1000E+01  0.10000E-15  0.1000E+01  0.0000E+00  0.0000E+00  0.0000E+00  0.0000E+00  0.0000E+00  0.0000E+00  0.0000E+00  0.0000E+00  0.0000E+00  0.0000E+00  0.0000E+00  0.0000E+00  0.0000E+00  0.0000E+00  0.0000E+00
      2.247     -5.000      0.000   25.000  0.08000  0.00000E+00  0.10000E-15  0.1000E+01  0.10000E-15  0.1000E+01  0.0000E+00  0.0000E+00  0.0000E+00  0.0000E+00  0.0000E+00  0.0000E+00  0.0000E+00  0.0000E+00  0.0000E+00  0.0000E+00  0.0000E+00  0.0000E+00  0.0000E+00  0.0000E+00  0.0000E+00
      5.215     -5.000      0.000   25.000  0.08000  0.00000E+00  0.10000E-15  0.1000E+01  0.10000E-15  0.1000E+01  0.0000E+00  0.0000E+00  0.0000E+00  0.0000E+00  0.0000E+00  0.0000E+00  0.0000E+00  0.0000E+00  0.0000E+00  0.0000E+00  0.0000E+00  0.0000E+00  0.0000E+00  0.0000E+00  0.0000E+00
     10.790     -5.000      0.000   25.000  0.08000  0.00000E+00  0.10000E-15  0.1000E+01  0.10000E-15  0.1000E+01  0.0000E+00  0.0000E+00  0.0000E+00  0.0000E+00  0.0000E+00  0.0000E+00  0.0000E+00  0.0000E+00  0.0000E+00  0.0000E+00  0.0000E+00  0.0000E+00  0.0000E+00  0.0000E+00  0.0000E+00
     14.340     -5.000      0.000   25.000  0.08000  0.00000E+00  0.10000E-15  0.1000E+01  0.10000E-15  0.1000E+01  0.0000E+00  0.0000E+00  0.0000E+00  0.0000E+00  0.0000E+00  0.0000E+00  0.0000E+00  0.0000E+00  0.0000E+00  0.0000E+00  0.0000E+00  0.0000E+00  0.0000E+00  0.0000E+00  0.0000E+00
      0.000     -7.000      0.000   25.000  0.50000  0.00000E+00  0.10000E-11  0.1000E+01  0.10000E-11  0.1000E+01  0.0000E+00  0.0000E+00  0.0000E+00  0.0000E+00  0.0000E+00  0.0000E+00  0.0000E+00  0.0000E+00  0.0000E+00  0.0000E+00  0.0000E+00  0.0000E+00  0.0000E+00  0.0000E+00  0.0000E+00
      0.254     -7.000      0.000   25.000  0.08000  0.00000E+00  0.10000E-15  0.1000E+01  0.10000E-15  0.1000E+01  0.0000E+00  0.0000E+00  0.0000E+00  0.0000E+00  0.0000E+00  0.0000E+00  0.0000E+00  0.0000E+00  0.0000E+00  0.0000E+00  0.0000E+00  0.0000E+00  0.0000E+00  0.0000E+00  0.0000E+00
      0.900     -7.000      0.000   25.000  0.08000  0.00000E+00  0.10000E-15  0.1000E+01  0.10000E-15  0.1000E+01  0.0000E+00  0.0000E+00  0.0000E+00  0.0000E+00  0.0000E+00  0.0000E+00  0.0000E+00  0.0000E+00  0.0000E+00  0.0000E+00  0.0000E+00  0.0000E+00  0.0000E+00  0.0000E+00  0.0000E+00
      2.247     -7.000      0.000   25.000  0.08000  0.00000E+00  0.10000E-15  0.1000E+01  0.10000E-15  0.1000E+01  0.0000E+00  0.0000E+00  0.0000E+00  0.0000E+00  0.0000E+00  0.0000E+00  0.0000E+00  0.0000E+00  0.0000E+00  0.0000E+00  0.0000E+00  0.0000E+00  0.0000E+00  0.0000E+00  0.0000E+00
      5.215     -7.000      0.000   25.000  0.08000  0.00000E+00  0.10000E-15  0.1000E+01  0.10000E-15  0.1000E+01  0.0000E+00  0.0000E+00  0.0000E+00  0.0000E+00  0.0000E+00  0.0000E+00  0.0000E+00  0.0000E+00  0.0000E+00  0.0000E+00  0.0000E+00  0.0000E+00  0.0000E+00  0.0000E+00  0.0000E+00
     10.790     -7.000      0.000   25.000  0.08000  0.00000E+00  0.10000E-15  0.1000E+01  0.10000E-15  0.1000E+01  0.0000E+00  0.0000E+00  0.0000E+00  0.0000E+00  0.0000E+00  0.0000E+00  0.0000E+00  0.0000E+00  0.0000E+00  0.0000E+00  0.0000E+00  0.0000E+00  0.0000E+00  0.0000E+00  0.0000E+00
     14.340     -7.000      0.000   25.000  0.08000  0.00000E+00  0.10000E-15  0.1000E+01  0.10000E-15  0.1000E+01  0.0000E+00  0.0000E+00  0.0000E+00  0.0000E+00  0.0000E+00  0.0000E+00  0.0000E+00  0.0000E+00  0.0000E+00  0.0000E+00  0.0000E+00  0.0000E+00  0.0000E+00  0.0000E+00  0.0000E+00
      0.000     -9.000      0.000   25.000  0.50000  0.00000E+00  0.10000E-11  0.1000E+01  0.10000E-11  0.1000E+01  0.0000E+00  0.0000E+00  0.0000E+00  0.0000E+00  0.0000E+00  0.0000E+00  0.0000E+00  0.0000E+00  0.0000E+00  0.0000E+00  0.0000E+00  0.0000E+00  0.0000E+00  0.0000E+00  0.0000E+00
      0.254     -9.000      0.000   25.000  0.08000  0.00000E+00  0.10000E-15  0.1000E+01  0.10000E-15  0.1000E+01  0.0000E+00  0.0000E+00  0.0000E+00  0.0000E+00  0.0000E+00  0.0000E+00  0.0000E+00  0.0000E+00  0.0000E+00  0.0000E+00  0.0000E+00  0.0000E+00  0.0000E+00  0.0000E+00  0.0000E+00
      0.900     -9.000      0.000   25.000  0.08000  0.00000E+00  0.10000E-15  0.1000E+01  0.10000E-15  0.1000E+01  0.0000E+00  0.0000E+00  0.0000E+00  0.0000E+00  0.0000E+00  0.0000E+00  0.0000E+00  0.0000E+00  0.0000E+00  0.0000E+00  0.0000E+00  0.0000E+00  0.0000E+00  0.0000E+00  0.0000E+00
      2.247     -9.000      0.000   25.000  0.08000  0.00000E+00  0.10000E-15  0.1000E+01  0.10000E-15  0.1000E+01  0.0000E+00  0.0000E+00  0.0000E+00  0.0000E+00  0.0000E+00  0.0000E+00  0.0000E+00  0.0000E+00  0.0000E+00  0.0000E+00  0.0000E+00  0.0000E+00  0.0000E+00  0.0000E+00  0.0000E+00
      5.215     -9.000      0.000   25.000  0.08000  0.00000E+00  0.10000E-15  0.1000E+01  0.10000E-15  0.1000E+01  0.0000E+00  0.0000E+00  0.0000E+00  0.0000E+00  0.0000E+00  0.0000E+00  0.0000E+00  0.0000E+00  0.0000E+00  0.0000E+00  0.0000E+00  0.0000E+00  0.0000E+00  0.0000E+00  0.0000E+00
     10.790     -9.000      0.000   25.000  0.08000  0.00000E+00  0.10000E-15  0.1000E+01  0.10000E-15  0.1000E+01  0.0000E+00  0.0000E+00  0.0000E+00  0.0000E+00  0.0000E+00  0.0000E+00  0.0000E+00  0.0000E+00  0.0000E+00  0.0000E+00  0.0000E+00  0.0000E+00  0.0000E+00  0.0000E+00  0.0000E+00
     14.340     -9.000      0.000   25.000  0.08000  0.00000E+00  0.10000E-15  0.1000E+01  0.10000E-15  0.1000E+01  0.0000E+00  0.0000E+00  0.0000E+00  0.0000E+00  0.0000E+00  0.0000E+00  0.0000E+00  0.0000E+00  0.0000E+00  0.0000E+00  0.0000E+00  0.0000E+00  0.0000E+00  0.0000E+00  0.0000E+00
      0.000    -11.000      0.000   25.000  0.50000  0.00000E+00  0.10000E-11  0.1000E+01  0.10000E-11  0.1000E+01  0.0000E+00  0.0000E+00  0.0000E+00  0.0000E+00  0.0000E+00  0.0000E+00  0.0000E+00  0.0000E+00  0.0000E+00  0.0000E+00  0.0000E+00  0.0000E+00  0.0000E+00  0.0000E+00  0.0000E+00
      0.254    -11.000      0.000   25.000  0.08000  0.00000E+00  0.10000E-15  0.1000E+01  0.10000E-15  0.1000E+01  0.0000E+00  0.0000E+00  0.0000E+00  0.0000E+00  0.0000E+00  0.0000E+00  0.0000E+00  0.0000E+00  0.0000E+00  0.0000E+00  0.0000E+00  0.0000E+00  0.0000E+00  0.0000E+00  0.0000E+00
      0.900    -11.000      0.000   25.000  0.08000  0.00000E+00  0.10000E-15  0.1000E+01  0.10000E-15  0.1000E+01  0.0000E+00  0.0000E+00  0.0000E+00  0.0000E+00  0.0000E+00  0.0000E+00  0.0000E+00  0.0000E+00  0.0000E+00  0.0000E+00  0.0000E+00  0.0000E+00  0.0000E+00  0.0000E+00  0.0000E+00
      2.247    -11.000      0.000   25.000  0.08000  0.00000E+00  0.10000E-15  0.1000E+01  0.10000E-15  0.1000E+01  0.0000E+00  0.0000E+00  0.0000E+00  0.0000E+00  0.0000E+00  0.0000E+00  0.0000E+00  0.0000E+00  0.0000E+00  0.0000E+00  0.0000E+00  0.0000E+00  0.0000E+00  0.0000E+00  0.0000E+00
      5.215    -11.000      0.000   25.000  0.08000  0.00000E+00  0.10000E-15  0.1000E+01  0.10000E-15  0.1000E+01  0.0000E+00  0.0000E+00  0.0000E+00  0.0000E+00  0.0000E+00  0.0000E+00  0.0000E+00  0.0000E+00  0.0000E+00  0.0000E+00  0.0000E+00  0.0000E+00  0.0000E+00  0.0000E+00  0.0000E+00
     10.790    -11.000      0.000   25.000  0.08000  0.00000E+00  0.10000E-15  0.1000E+01  0.10000E-15  0.1000E+01  0.0000E+00  0.0000E+00  0.0000E+00  0.0000E+00  0.0000E+00  0.0000E+00  0.0000E+00  0.0000E+00  0.0000E+00  0.0000E+00  0.0000E+00  0.0000E+00  0.0000E+00  0.0000E+00  0.0000E+00
     14.340    -11.000      0.000   25.000  0.08000  0.00000E+00  0.10000E-15  0.1000E+01  0.10000E-15  0.1000E+01  0.0000E+00  0.0000E+00  0.0000E+00  0.0000E+00  0.0000E+00  0.0000E+00  0.0000E+00  0.0000E+00  0.0000E+00  0.0000E+00  0.0000E+00  0.0000E+00  0.0000E+00  0.0000E+00  0.0000E+00
      0.000    -13.000      0.000   25.000  0.50000  0.00000E+00  0.10000E-11  0.1000E+01  0.10000E-11  0.1000E+01  0.0000E+00  0.0000E+00  0.0000E+00  0.0000E+00  0.0000E+00  0.0000E+00  0.0000E+00  0.0000E+00  0.0000E+00  0.0000E+00  0.0000E+00  0.0000E+00  0.0000E+00  0.0000E+00  0.0000E+00
      0.254    -13.000      0.000   25.000  0.08000  0.00000E+00  0.10000E-15  0.1000E+01  0.10000E-15  0.1000E+01  0.0000E+00  0.0000E+00  0.0000E+00  0.0000E+00  0.0000E+00  0.0000E+00  0.0000E+00  0.0000E+00  0.0000E+00  0.0000E+00  0.0000E+00  0.0000E+00  0.0000E+00  0.0000E+00  0.0000E+00
      0.900    -13.000      0.000   25.000  0.08000  0.00000E+00  0.10000E-15  0.1000E+01  0.10000E-15  0.1000E+01  0.0000E+00  0.0000E+00  0.0000E+00  0.0000E+00  0.0000E+00  0.0000E+00  0.0000E+00  0.0000E+00  0.0000E+00  0.0000E+00  0.0000E+00  0.0000E+00  0.0000E+00  0.0000E+00  0.0000E+00
      2.247    -13.000      0.000   25.000  0.08000  0.00000E+00  0.10000E-15  0.1000E+01  0.10000E-15  0.1000E+01  0.0000E+00  0.0000E+00  0.0000E+00  0.0000E+00  0.0000E+00  0.0000E+00  0.0000E+00  0.0000E+00  0.0000E+00  0.0000E+00  0.0000E+00  0.0000E+00  0.0000E+00  0.0000E+00  0.0000E+00
      5.215    -13.000      0.000   25.000  0.08000  0.00000E+00  0.10000E-15  0.1000E+01  0.10000E-15  0.1000E+01  0.0000E+00  0.0000E+00  0.0000E+00  0.0000E+00  0.0000E+00  0.0000E+00  0.0000E+00  0.0000E+00  0.0000E+00  0.0000E+00  0.0000E+00  0.0000E+00  0.0000E+00  0.0000E+00  0.0000E+00
     10.790    -13.000      0.000   25.000  0.08000  0.00000E+00  0.10000E-15  0.1000E+01  0.10000E-15  0.1000E+01  0.0000E+00  0.0000E+00  0.0000E+00  0.0000E+00  0.0000E+00  0.0000E+00  0.0000E+00  0.0000E+00  0.0000E+00  0.0000E+00  0.0000E+00  0.0000E+00  0.0000E+00  0.0000E+00  0.0000E+00
     14.340    -13.000      0.000   25.000  0.08000  0.00000E+00  0.10000E-15  0.1000E+01  0.10000E-15  0.1000E+01  0.0000E+00  0.0000E+00  0.0000E+00  0.0000E+00  0.0000E+00  0.0000E+00  0.0000E+00  0.0000E+00  0.0000E+00  0.0000E+00  0.0000E+00  0.0000E+00  0.0000E+00  0.0000E+00  0.0000E+00
      0.000    -15.000      0.000   25.000  0.50000  0.00000E+00  0.10000E-11  0.1000E+01  0.10000E-11  0.1000E+01  0.0000E+00  0.0000E+00  0.0000E+00  0.0000E+00  0.0000E+00  0.0000E+00  0.0000E+00  0.0000E+00  0.0000E+00  0.0000E+00  0.0000E+00  0.0000E+00  0.0000E+00  0.0000E+00  0.0000E+00
      0.254    -15.000      0.000   25.000  0.08000  0.00000E+00  0.10000E-15  0.1000E+01  0.10000E-15  0.1000E+01  0.0000E+00  0.0000E+00  0.0000E+00  0.0000E+00  0.0000E+00  0.0000E+00  0.0000E+00  0.0000E+00  0.0000E+00  0.0000E+00  0.0000E+00  0.0000E+00  0.0000E+00  0.0000E+00  0.0000E+00
      0.900    -15.000      0.000   25.000  0.08000  0.00000E+00  0.10000E-15  0.1000E+01  0.10000E-15  0.1000E+01  0.0000E+00  0.0000E+00  0.0000E+00  0.0000E+00  0.0000E+00  0.0000E+00  0.0000E+00  0.0000E+00  0.0000E+00  0.0000E+00  0.0000E+00  0.0000E+00  0.0000E+00  0.0000E+00  0.0000E+00
      2.247    -15.000      0.000   25.000  0.08000  0.00000E+00  0.10000E-15  0.1000E+01  0.10000E-15  0.1000E+01  0.0000E+00  0.0000E+00  0.0000E+00  0.0000E+00  0.0000E+00  0.0000E+00  0.0000E+00  0.0000E+00  0.0000E+00  0.0000E+00  0.0000E+00  0.0000E+00  0.0000E+00  0.0000E+00  0.0000E+00
      5.215    -15.000      0.000   25.000  0.08000  0.00000E+00  0.10000E-15  0.1000E+01  0.10000E-15  0.1000E+01  0.0000E+00  0.0000E+00  0.0000E+00  0.0000E+00  0.0000E+00  0.0000E+00  0.0000E+00  0.0000E+00  0.0000E+00  0.0000E+00  0.0000E+00  0.0000E+00  0.0000E+00  0.0000E+00  0.0000E+00
     10.790    -15.000      0.000   25.000  0.08000  0.00000E+00  0.10000E-15  0.1000E+01  0.10000E-15  0.1000E+01  0.0000E+00  0.0000E+00  0.0000E+00  0.0000E+00  0.0000E+00  0.0000E+00  0.0000E+00  0.0000E+00  0.0000E+00  0.0000E+00  0.0000E+00  0.0000E+00  0.0000E+00  0.0000E+00  0.0000E+00
     14.340    -15.000      0.000   25.000  0.08000  0.00000E+00  0.10000E-15  0.1000E+01  0.10000E-15  0.1000E+01  0.0000E+00  0.0000E+00  0.0000E+00  0.0000E+00  0.0000E+00  0.0000E+00  0.0000E+00  0.0000E+00  0.0000E+00  0.0000E+00  0.0000E+00  0.0000E+00  0.0000E+00  0.0000E+00  0.0000E+00
      0.000    -17.000      0.000   25.000  0.50000  0.00000E+00  0.10000E-11  0.1000E+01  0.10000E-11  0.1000E+01  0.0000E+00  0.0000E+00  0.0000E+00  0.0000E+00  0.0000E+00  0.0000E+00  0.0000E+00  0.0000E+00  0.0000E+00  0.0000E+00  0.0000E+00  0.0000E+00  0.0000E+00  0.0000E+00  0.0000E+00
      0.254    -17.000      0.000   25.000  0.08000  0.00000E+00  0.10000E-15  0.1000E+01  0.10000E-15  0.1000E+01  0.0000E+00  0.0000E+00  0.0000E+00  0.0000E+00  0.0000E+00  0.0000E+00  0.0000E+00  0.0000E+00  0.0000E+00  0.0000E+00  0.0000E+00  0.0000E+00  0.0000E+00  0.0000E+00  0.0000E+00
      0.900    -17.000      0.000   25.000  0.08000  0.00000E+00  0.10000E-15  0.1000E+01  0.10000E-15  0.1000E+01  0.0000E+00  0.0000E+00  0.0000E+00  0.0000E+00  0.0000E+00  0.0000E+00  0.0000E+00  0.0000E+00  0.0000E+00  0.0000E+00  0.0000E+00  0.0000E+00  0.0000E+00  0.0000E+00  0.0000E+00
      2.247    -17.000      0.000   25.000  0.08000  0.00000E+00  0.10000E-15  0.1000E+01  0.10000E-15  0.1000E+01  0.0000E+00  0.0000E+00  0.0000E+00  0.0000E+00  0.0000E+00  0.0000E+00  0.0000E+00  0.0000E+00  0.0000E+00  0.0000E+00  0.0000E+00  0.0000E+00  0.0000E+00  0.0000E+00  0.0000E+00
      5.215    -17.000      0.000   25.000  0.08000  0.00000E+00  0.10000E-15  0.1000E+01  0.10000E-15  0.1000E+01  0.0000E+00  0.0000E+00  0.0000E+00  0.0000E+00  0.0000E+00  0.0000E+00  0.0000E+00  0.0000E+00  0.0000E+00  0.0000E+00  0.0000E+00  0.0000E+00  0.0000E+00  0.0000E+00  0.0000E+00
     10.790    -17.000      0.000   25.000  0.08000  0.00000E+00  0.10000E-15  0.1000E+01  0.10000E-15  0.1000E+01  0.0000E+00  0.0000E+00  0.0000E+00  0.0000E+00  0.0000E+00  0.0000E+00  0.0000E+00  0.0000E+00  0.0000E+00  0.0000E+00  0.0000E+00  0.0000E+00  0.0000E+00  0.0000E+00  0.0000E+00
     14.340    -17.000      0.000   25.000  0.08000  0.00000E+00  0.10000E-15  0.1000E+01  0.10000E-15  0.1000E+01  0.0000E+00  0.0000E+00  0.0000E+00  0.0000E+00  0.0000E+00  0.0000E+00  0.0000E+00  0.0000E+00  0.0000E+00  0.0000E+00  0.0000E+00  0.0000E+00  0.0000E+00  0.0000E+00  0.0000E+00
      0.000    -19.000      0.000   25.000  0.50000  0.00000E+00  0.10000E-11  0.1000E+01  0.10000E-11  0.1000E+01  0.0000E+00  0.0000E+00  0.0000E+00  0.0000E+00  0.0000E+00  0.0000E+00  0.0000E+00  0.0000E+00  0.0000E+00  0.0000E+00  0.0000E+00  0.0000E+00  0.0000E+00  0.0000E+00  0.0000E+00
      0.254    -19.000      0.000   25.000  0.08000  0.00000E+00  0.10000E-15  0.1000E+01  0.10000E-15  0.1000E+01  0.0000E+00  0.0000E+00  0.0000E+00  0.0000E+00  0.0000E+00  0.0000E+00  0.0000E+00  0.0000E+00  0.0000E+00  0.0000E+00  0.0000E+00  0.0000E+00  0.0000E+00  0.0000E+00  0.0000E+00
      0.900    -19.000      0.000   25.000  0.08000  0.00000E+00  0.10000E-15  0.1000E+01  0.10000E-15  0.1000E+01  0.0000E+00  0.0000E+00  0.0000E+00  0.0000E+00  0.0000E+00  0.0000E+00  0.0000E+00  0.0000E+00  0.0000E+00  0.0000E+00  0.0000E+00  0.0000E+00  0.0000E+00  0.0000E+00  0.0000E+00
      2.247    -19.000      0.000   25.000  0.08000  0.00000E+00  0.10000E-15  0.1000E+01  0.10000E-15  0.1000E+01  0.0000E+00  0.0000E+00  0.0000E+00  0.0000E+00  0.0000E+00  0.0000E+00  0.0000E+00  0.0000E+00  0.0000E+00  0.0000E+00  0.0000E+00  0.0000E+00  0.0000E+00  0.0000E+00  0.0000E+00
      5.215    -19.000      0.000   25.000  0.08000  0.00000E+00  0.10000E-15  0.1000E+01  0.10000E-15  0.1000E+01  0.0000E+00  0.0000E+00  0.0000E+00  0.0000E+00  0.0000E+00  0.0000E+00  0.0000E+00  0.0000E+00  0.0000E+00  0.0000E+00  0.0000E+00  0.0000E+00  0.0000E+00  0.0000E+00  0.0000E+00
     10.790    -19.000      0.000   25.000  0.08000  0.00000E+00  0.10000E-15  0.1000E+01  0.10000E-15  0.1000E+01  0.0000E+00  0.0000E+00  0.0000E+00  0.0000E+00  0.0000E+00  0.0000E+00  0.0000E+00  0.0000E+00  0.0000E+00  0.0000E+00  0.0000E+00  0.0000E+00  0.0000E+00  0.0000E+00  0.0000E+00
     14.340    -19.000      0.000   25.000  0.08000  0.00000E+00  0.10000E-15  0.1000E+01  0.10000E-15  0.1000E+01  0.0000E+00  0.0000E+00  0.0000E+00  0.0000E+00  0.0000E+00  0.0000E+00  0.0000E+00  0.0000E+00  0.0000E+00  0.0000E+00  0.0000E+00  0.0000E+00  0.0000E+00  0.0000E+00  0.0000E+00
      0.000    -20.000      0.000   25.000  0.09000  0.00000E+00  0.10000E-11  0.1000E+01  0.10000E-11  0.1000E+01  0.0000E+00  0.0000E+00  0.0000E+00  0.0000E+00  0.0000E+00  0.0000E+00  0.0000E+00  0.0000E+00  0.0000E+00  0.0000E+00  0.0000E+00  0.0000E+00  0.0000E+00  0.0000E+00  0.0000E+00
      0.254    -20.000      0.000   25.000  0.09000  0.00000E+00  0.10000E-15  0.1000E+01  0.10000E-15  0.1000E+01  0.0000E+00  0.0000E+00  0.0000E+00  0.0000E+00  0.0000E+00  0.0000E+00  0.0000E+00  0.0000E+00  0.0000E+00  0.0000E+00  0.0000E+00  0.0000E+00  0.0000E+00  0.0000E+00  0.0000E+00
      0.900    -20.000      0.000   25.000  0.09000  0.00000E+00  0.10000E-15  0.1000E+01  0.10000E-15  0.1000E+01  0.0000E+00  0.0000E+00  0.0000E+00  0.0000E+00  0.0000E+00  0.0000E+00  0.0000E+00  0.0000E+00  0.0000E+00  0.0000E+00  0.0000E+00  0.0000E+00  0.0000E+00  0.0000E+00  0.0000E+00
      2.247    -20.000      0.000   25.000  0.09000  0.00000E+00  0.10000E-15  0.1000E+01  0.10000E-15  0.1000E+01  0.0000E+00  0.0000E+00  0.0000E+00  0.0000E+00  0.0000E+00  0.0000E+00  0.0000E+00  0.0000E+00  0.0000E+00  0.0000E+00  0.0000E+00  0.0000E+00  0.0000E+00  0.0000E+00  0.0000E+00
      5.215    -20.000      0.000   25.000  0.09000  0.00000E+00  0.10000E-15  0.1000E+01  0.10000E-15  0.1000E+01  0.0000E+00  0.0000E+00  0.0000E+00  0.0000E+00  0.0000E+00  0.0000E+00  0.0000E+00  0.0000E+00  0.0000E+00  0.0000E+00  0.0000E+00  0.0000E+00  0.0000E+00  0.0000E+00  0.0000E+00
     10.790    -20.000      0.000   25.000  0.09000  0.00000E+00  0.10000E-15  0.1000E+01  0.10000E-15  0.1000E+01  0.0000E+00  0.0000E+00  0.0000E+00  0.0000E+00  0.0000E+00  0.0000E+00  0.0000E+00  0.0000E+00  0.0000E+00  0.0000E+00  0.0000E+00  0.0000E+00  0.0000E+00  0.0000E+00  0.0000E+00
     14.340    -20.000      0.000   25.000  0.09000  0.00000E+00  0.10000E-15  0.1000E+01  0.10000E-15  0.1000E+01  0.0000E+00  0.0000E+00  0.0000E+00  0.0000E+00  0.0000E+00  0.0000E+00  0.0000E+00  0.0000E+00  0.0000E+00  0.0000E+00  0.0000E+00  0.0000E+00  0.0000E+00  0.0000E+00  0.0000E+00
ZONE T= "0.271853E+00 yr"  F=POINT
      0.000     -0.000      0.000   25.000  0.90000  0.00000E+00  0.60260E-10  0.1000E+01  0.60260E-10  0.1000E+01  0.0000E+00  0.0000E+00  0.0000E+00  0.0000E+00  0.0000E+00  0.0000E+00  0.0000E+00  0.0000E+00  0.0000E+00  0.0000E+00  0.0000E+00  0.0000E+00  0.0000E+00  0.0000E+00  0.0000E+00
      0.000     -1.000      0.000   25.000  0.50000 -0.42783E-08  0.10000E-11  0.1000E+01  0.10000E-11  0.1000E+01 -0.2694E-08 -0.2061E-08 -0.1299E-08 -0.9687E-09 -0.4563E-09 -0.2343E-09 -0.3449E-11 -0.5367E-11 -0.5732E-10  0.1206E-07  0.0000E+00  0.0000E+00  0.0000E+00  0.0000E+00  0.0000E+00
      0.254     -1.000      0.000   25.000  0.08000  0.59242E-07  0.10000E-15  0.1000E+01  0.10000E-15  0.1000E+01 -0.3594E-07 -0.2749E-07 -0.1733E-07 -0.1292E-07 -0.6087E-08 -0.3125E-08 -0.4600E-10 -0.7158E-10 -0.7646E-09  0.4452E-07  0.0000E+00  0.0000E+00  0.0000E+00  0.0000E+00  0.0000E+00
      0.900     -1.000      0.000   25.000  0.08000  0.58425E-07  0.10000E-15  0.1000E+01  0.10000E-15  0.1000E+01 -0.3594E-07 -0.2749E-07 -0.1732E-07 -0.1292E-07 -0.6087E-08 -0.3125E-08 -0.4600E-10 -0.7158E-10 -0.7646E-09  0.4534E-07  0.0000E+00  0.0000E+00  0.0000E+00  0.0000E+00  0.0000E+00
      2.247     -1.000      0.000   25.000  0.08000  0.58014E-07  0.10000E-15  0.1000E+01  0.10000E-15  0.1000E+01 -0.3594E-07 -0.2749E-07 -0.1732E-07 -0.1292E-07 -0.6087E-08 -0.3125E-08 -0.4600E-10 -0.7157E-10 -0.7646E-09  0.4575E-07  0.0000E+00  0.0000E+00  0.0000E+00  0.0000E+00  0.0000E+00
      5.215     -1.000      0.000   25.000  0.08000  0.57921E-07  0.10000E-15  0.1000E+01  0.10000E-15  0.1000E+01 -0.3594E-07 -0.2749E-07 -0.1732E-07 -0.1292E-07 -0.6087E-08 -0.3125E-08 -0.4600E-10 -0.7157E-10 -0.7646E-09  0.4584E-07  0.0000E+00  0.0000E+00  0.0000E+00  0.0000E+00  0.0000E+00
     10.790     -1.000      0.000   25.000  0.08000  0.57915E-07  0.10000E-15  0.1000E+01  0.10000E-15  0.1000E+01 -0.3594E-07 -0.2749E-07 -0.1732E-07 -0.1292E-07 -0.6087E-08 -0.3125E-08 -0.4600E-10 -0.7157E-10 -0.7646E-09  0.4585E-07  0.0000E+00  0.0000E+00  0.0000E+00  0.0000E+00  0.0000E+00
     14.340     -1.000      0.000   25.000  0.08000  0.57914E-07  0.10000E-15  0.1000E+01  0.10000E-15  0.1000E+01 -0.3594E-07 -0.2749E-07 -0.1732E-07 -0.1292E-07 -0.6087E-08 -0.3125E-08 -0.4600E-10 -0.7157E-10 -0.7646E-09  0.4585E-07  0.0000E+00  0.0000E+00  0.0000E+00  0.0000E+00  0.0000E+00
      0.000     -3.000      0.000   25.000  0.50000 -0.41523E-08  0.10000E-11  0.1000E+01  0.10000E-11  0.1000E+01 -0.2580E-08 -0.1973E-08 -0.1244E-08 -0.9278E-09 -0.4371E-09 -0.2244E-09 -0.3303E-11 -0.5142E-11 -0.5490E-10  0.1160E-07  0.0000E+00  0.0000E+00  0.0000E+00  0.0000E+00  0.0000E+00
      0.254     -3.000      0.000   25.000  0.08000  0.59550E-07  0.10000E-15  0.1000E+01  0.10000E-15  0.1000E+01 -0.3620E-07 -0.2769E-07 -0.1745E-07 -0.1302E-07 -0.6132E-08 -0.3148E-08 -0.4634E-10 -0.7210E-10 -0.7702E-09  0.4497E-07  0.0000E+00  0.0000E+00  0.0000E+00  0.0000E+00  0.0000E+00
      0.900     -3.000      0.000   25.000  0.08000  0.58817E-07  0.10000E-15  0.1000E+01  0.10000E-15  0.1000E+01 -0.3620E-07 -0.2769E-07 -0.1745E-07 -0.1302E-07 -0.6132E-08 -0.3148E-08 -0.4634E-10 -0.7210E-10 -0.7702E-09  0.4571E-07  0.0000E+00  0.0000E+00  0.0000E+00  0.0000E+00  0.0000E+00
      2.247     -3.000      0.000   25.000  0.08000  0.58435E-07  0.10000E-15  0.1000E+01  0.10000E-15  0.1000E+01 -0.3620E-07 -0.2769E-07 -0.1745E-07 -0.1302E-07 -0.6132E-08 -0.3148E-08 -0.4634E-10 -0.7210E-10 -0.7702E-09  0.4609E-07  0.0000E+00  0.0000E+00  0.0000E+00  0.0000E+00  0.0000E+00
      5.215     -3.000      0.000   25.000  0.08000  0.58345E-07  0.10000E-15  0.1000E+01  0.10000E-15  0.1000E+01 -0.3620E-07 -0.2769E-07 -0.1745E-07 -0.1302E-07 -0.6132E-08 -0.3148E-08 -0.4634E-10 -0.7210E-10 -0.7702E-09  0.4618E-07  0.0000E+00  0.0000E+00  0.0000E+00  0.0000E+00  0.0000E+00
     10.790     -3.000      0.000   25.000  0.08000  0.58340E-07  0.10000E-15  0.1000E+01  0.10000E-15  0.1000E+01 -0.3620E-07 -0.2769E-07 -0.1745E-07 -0.1302E-07 -0.6132E-08 -0.3148E-08 -0.4634E-10 -0.7210E-10 -0.7702E-09  0.4618E-07  0.0000E+00  0.0000E+00  0.0000E+00  0.0000E+00  0.0000E+00
     14.340     -3.000      0.000   25.000  0.08000  0.58339E-07  0.10000E-15  0.1000E+01  0.10000E-15  0.1000E+01 -0.3620E-07 -0.2769E-07 -0.1745E-07 -0.1302E-07 -0.6132E-08 -0.3148E-08 -0.4634E-10 -0.7210E-10 -0.7702E-09  0.4618E-07  0.0000E+00  0.0000E+00  0.0000E+00  0.0000E+00  0.0000E+00
      0.000     -5.000      0.000   25.000  0.50000 -0.42559E-08  0.10000E-11  0.1000E+01  0.10000E-11  0.1000E+01 -0.2647E-08 -0.2025E-08 -0.1276E-08 -0.9520E-09 -0.4484E-09 -0.2302E-09 -0.3390E-11 -0.5274E-11 -0.5633E-10  0.1190E-07  0.0000E+00  0.0000E+00  0.0000E+00  0.0000E+00  0.0000E+00
      0.254     -5.000      0.000   25.000  0.08000  0.59876E-07  0.10000E-15  0.1000E+01  0.10000E-15  0.1000E+01 -0.3639E-07 -0.2783E-07 -0.1754E-07 -0.1309E-07 -0.6164E-08 -0.3164E-08 -0.4658E-10 -0.7250E-10 -0.7743E-09  0.4520E-07  0.0000E+00  0.0000E+00  0.0000E+00  0.0000E+00  0.0000E+00
      0.900     -5.000      0.000   25.000  0.08000  0.59132E-07  0.10000E-15  0.1000E+01  0.10000E-15  0.1000E+01 -0.3639E-07 -0.2783E-07 -0.1754E-07 -0.1309E-07 -0.6164E-08 -0.3164E-08 -0.4658E-10 -0.7250E-10 -0.7743E-09  0.4594E-07  0.0000E+00  0.0000E+00  0.0000E+00  0.0000E+00  0.0000E+00
      2.247     -5.000      0.000   25.000  0.08000  0.58744E-07  0.10000E-15  0.1000E+01  0.10000E-15  0.1000E+01 -0.3639E-07 -0.2783E-07 -0.1754E-07 -0.1309E-07 -0.6164E-08 -0.3164E-08 -0.4658E-10 -0.7250E-10 -0.7743E-09  0.4633E-07  0.0000E+00  0.0000E+00  0.0000E+00  0.0000E+00  0.0000E+00
      5.215     -5.000      0.000   25.000  0.08000  0.58652E-07  0.10000E-15  0.1000E+01  0.10000E-15  0.1000E+01 -0.3639E-07 -0.2783E-07 -0.1754E-07 -0.1309E-07 -0.6164E-08 -0.3164E-08 -0.4658E-10 -0.7250E-10 -0.7743E-09  0.4642E-07  0.0000E+00  0.0000E+00  0.0000E+00  0.0000E+00  0.0000E+00
     10.790     -5.000      0.000   25.000  0.08000  0.58647E-07  0.10000E-15  0.1000E+01  0.10000E-15  0.1000E+01 -0.3639E-07 -0.2783E-07 -0.1754E-07 -0.1309E-07 -0.6164E-08 -0.3164E-08 -0.4658E-10 -0.7250E-10 -0.7743E-09  0.4643E-07  0.0000E+00  0.0000E+00  0.0000E+00  0.0000E+00  0.0000E+00